/*--------------------------------*- C++ -*----------------------------------*\
  =========                 |
  \\      /  F ield         | OpenFOAM: The Open Source CFD Toolbox
   \\    /   O peration     | Website:  https://openfoam.org
    \\  /    A nd           | Version:  7
     \\/     M anipulation  |
\*---------------------------------------------------------------------------*/
FoamFile
{
    version     2.0;
    format      ascii;
    class       volScalarField::Internal;
    location    "0.001";
    object      bioCloud:rhoTrans_tar;
}
// * * * * * * * * * * * * * * * * * * * * * * * * * * * * * * * * * * * * * //

dimensions      [1 0 0 0 0 0 0];

value           nonuniform List<scalar> 
125
(
2.447193769e-33
4.712926865e-31
5.206758532e-29
4.712915322e-31
2.361061764e-33
4.712926865e-31
1.038188108e-28
1.338692773e-26
1.038186949e-28
4.647654114e-31
5.206758532e-29
1.338692773e-26
2.071381979e-24
1.338692167e-26
5.208095287e-29
4.712915322e-31
1.038186949e-28
1.338692167e-26
1.038456368e-28
4.647655179e-31
2.361061764e-33
4.647654114e-31
5.208095287e-29
4.647655179e-31
2.361099533e-33
4.712926865e-31
1.038188108e-28
1.338692773e-26
1.038186949e-28
4.647654114e-31
1.038188108e-28
2.670422579e-26
4.133793233e-24
2.670422235e-26
1.03845602e-28
1.338692773e-26
4.133793233e-24
7.998756169e-22
4.13379323e-24
1.338692168e-26
1.038186949e-28
2.670422235e-26
4.13379323e-24
2.670422236e-26
1.038186952e-28
4.647654114e-31
1.03845602e-28
1.338692168e-26
1.038186952e-28
4.712915344e-31
5.206758532e-29
1.338692773e-26
2.071381979e-24
1.338692167e-26
5.208095287e-29
1.338692773e-26
4.133793233e-24
7.998756169e-22
4.13379323e-24
1.338692168e-26
2.071381979e-24
7.998756169e-22
2.063630842e-19
7.998756169e-22
2.071381979e-24
1.338692167e-26
4.13379323e-24
7.998756169e-22
4.133793233e-24
1.338692773e-26
5.208095287e-29
1.338692168e-26
2.071381979e-24
1.338692773e-26
5.206758532e-29
4.712915322e-31
1.038186949e-28
1.338692167e-26
1.038456368e-28
4.647655179e-31
1.038186949e-28
2.670422235e-26
4.13379323e-24
2.670422236e-26
1.038186952e-28
1.338692167e-26
4.13379323e-24
7.998756169e-22
4.133793233e-24
1.338692773e-26
1.038456368e-28
2.670422236e-26
4.133793233e-24
2.670422579e-26
1.038188108e-28
4.647655179e-31
1.038186952e-28
1.338692773e-26
1.038188108e-28
4.712926865e-31
2.361061764e-33
4.647654114e-31
5.208095287e-29
4.647655179e-31
2.361099533e-33
4.647654114e-31
1.03845602e-28
1.338692168e-26
1.038186952e-28
4.712915344e-31
5.208095287e-29
1.338692168e-26
2.071381979e-24
1.338692773e-26
5.206758532e-29
4.647655179e-31
1.038186952e-28
1.338692773e-26
1.038188108e-28
4.712926865e-31
2.361099533e-33
4.712915344e-31
5.206758532e-29
4.712926865e-31
2.447193769e-33
)
;


// ************************************************************************* //
