/*--------------------------------*- C++ -*----------------------------------*\
  =========                 |
  \\      /  F ield         | OpenFOAM: The Open Source CFD Toolbox
   \\    /   O peration     | Website:  https://openfoam.org
    \\  /    A nd           | Version:  7
     \\/     M anipulation  |
\*---------------------------------------------------------------------------*/
FoamFile
{
    version     2.0;
    format      ascii;
    class       volScalarField::Internal;
    location    "0.001";
    object      bioCloud:rhoTrans_CO2;
}
// * * * * * * * * * * * * * * * * * * * * * * * * * * * * * * * * * * * * * //

dimensions      [1 0 0 0 0 0 0];

value           nonuniform List<scalar> 
125
(
1.821399057e-36
3.50774044e-34
3.875289812e-32
3.507731848e-34
1.757292669e-36
3.50774044e-34
7.727033571e-32
9.963631751e-30
7.727024948e-32
3.459159192e-34
3.875289812e-32
9.963631751e-30
1.541689601e-27
9.963627242e-30
3.876284733e-32
3.507731848e-34
7.727024948e-32
9.963627242e-30
7.729030176e-32
3.459159985e-34
1.757292669e-36
3.459159192e-34
3.876284733e-32
3.459159985e-34
1.75732078e-36
3.50774044e-34
7.727033571e-32
9.963631751e-30
7.727024948e-32
3.459159192e-34
7.727033571e-32
1.987543949e-29
3.076702463e-27
1.987543693e-29
7.729027586e-32
9.963631751e-30
3.076702463e-27
5.953319728e-25
3.076702461e-27
9.963627248e-30
7.727024948e-32
1.987543693e-29
3.076702461e-27
1.987543694e-29
7.727024965e-32
3.459159192e-34
7.729027586e-32
9.963627248e-30
7.727024965e-32
3.507731865e-34
3.875289812e-32
9.963631751e-30
1.541689601e-27
9.963627242e-30
3.876284733e-32
9.963631751e-30
3.076702463e-27
5.953319728e-25
3.076702461e-27
9.963627248e-30
1.541689601e-27
5.953319728e-25
1.535920579e-22
5.953319728e-25
1.541689601e-27
9.963627242e-30
3.076702461e-27
5.953319728e-25
3.076702463e-27
9.963631751e-30
3.876284733e-32
9.963627248e-30
1.541689601e-27
9.963631751e-30
3.875289812e-32
3.507731848e-34
7.727024948e-32
9.963627242e-30
7.729030176e-32
3.459159985e-34
7.727024948e-32
1.987543693e-29
3.076702461e-27
1.987543694e-29
7.727024965e-32
9.963627242e-30
3.076702461e-27
5.953319728e-25
3.076702463e-27
9.963631751e-30
7.729030176e-32
1.987543694e-29
3.076702463e-27
1.987543949e-29
7.727033571e-32
3.459159985e-34
7.727024965e-32
9.963631751e-30
7.727033571e-32
3.50774044e-34
1.757292669e-36
3.459159192e-34
3.876284733e-32
3.459159985e-34
1.75732078e-36
3.459159192e-34
7.729027586e-32
9.963627248e-30
7.727024965e-32
3.507731865e-34
3.876284733e-32
9.963627248e-30
1.541689601e-27
9.963631751e-30
3.875289812e-32
3.459159985e-34
7.727024965e-32
9.963631751e-30
7.727033571e-32
3.50774044e-34
1.75732078e-36
3.507731865e-34
3.875289812e-32
3.50774044e-34
1.821399057e-36
)
;


// ************************************************************************* //
