/*--------------------------------*- C++ -*----------------------------------*\
  =========                 |
  \\      /  F ield         | OpenFOAM: The Open Source CFD Toolbox
   \\    /   O peration     | Website:  https://openfoam.org
    \\  /    A nd           | Version:  7
     \\/     M anipulation  |
\*---------------------------------------------------------------------------*/
FoamFile
{
    version     2.0;
    format      ascii;
    class       volScalarField::Internal;
    location    "0.001";
    object      bioCloud:rhoTrans_H2;
}
// * * * * * * * * * * * * * * * * * * * * * * * * * * * * * * * * * * * * * //

dimensions      [1 0 0 0 0 0 0];

value           nonuniform List<scalar> 
125
(
3.50843261e-38
6.756713142e-36
7.464697588e-34
6.756696593e-36
3.384948994e-38
6.756713142e-36
1.488404008e-33
1.919224149e-31
1.488402347e-33
6.663134509e-36
7.464697588e-34
1.919224149e-31
2.969648001e-29
1.91922328e-31
7.466614034e-34
6.756696593e-36
1.488402347e-33
1.91922328e-31
1.488788599e-33
6.663136036e-36
3.384948994e-38
6.663134509e-36
7.466614034e-34
6.663136036e-36
3.385003142e-38
6.756713142e-36
1.488404008e-33
1.919224149e-31
1.488402347e-33
6.663134509e-36
1.488404008e-33
3.828465803e-31
5.926435072e-29
3.828465311e-31
1.488788101e-33
1.919224149e-31
5.926435072e-29
1.146746013e-26
5.926435068e-29
1.919223281e-31
1.488402347e-33
3.828465311e-31
5.926435068e-29
3.828465312e-31
1.48840235e-33
6.663134509e-36
1.488788101e-33
1.919223281e-31
1.48840235e-33
6.756696625e-36
7.464697588e-34
1.919224149e-31
2.969648001e-29
1.91922328e-31
7.466614034e-34
1.919224149e-31
5.926435072e-29
1.146746013e-26
5.926435068e-29
1.919223281e-31
2.969648001e-29
1.146746013e-26
2.958535541e-24
1.146746013e-26
2.969648001e-29
1.91922328e-31
5.926435068e-29
1.146746013e-26
5.926435072e-29
1.919224149e-31
7.466614034e-34
1.919223281e-31
2.969648001e-29
1.919224149e-31
7.464697588e-34
6.756696593e-36
1.488402347e-33
1.91922328e-31
1.488788599e-33
6.663136036e-36
1.488402347e-33
3.828465311e-31
5.926435068e-29
3.828465312e-31
1.48840235e-33
1.91922328e-31
5.926435068e-29
1.146746013e-26
5.926435072e-29
1.919224149e-31
1.488788599e-33
3.828465312e-31
5.926435072e-29
3.828465803e-31
1.488404008e-33
6.663136036e-36
1.48840235e-33
1.919224149e-31
1.488404008e-33
6.756713142e-36
3.384948994e-38
6.663134509e-36
7.466614034e-34
6.663136036e-36
3.385003142e-38
6.663134509e-36
1.488788101e-33
1.919223281e-31
1.48840235e-33
6.756696625e-36
7.466614034e-34
1.919223281e-31
2.969648001e-29
1.919224149e-31
7.464697588e-34
6.663136036e-36
1.48840235e-33
1.919224149e-31
1.488404008e-33
6.756713142e-36
3.385003142e-38
6.756696625e-36
7.464697588e-34
6.756713142e-36
3.50843261e-38
)
;


// ************************************************************************* //
