/*--------------------------------*- C++ -*----------------------------------*\
  =========                 |
  \\      /  F ield         | OpenFOAM: The Open Source CFD Toolbox
   \\    /   O peration     | Website:  https://openfoam.org
    \\  /    A nd           | Version:  7
     \\/     M anipulation  |
\*---------------------------------------------------------------------------*/
FoamFile
{
    version     2.0;
    format      ascii;
    class       volScalarField::Internal;
    location    "0.001";
    object      bioCloud:rhoTrans_H2O;
}
// * * * * * * * * * * * * * * * * * * * * * * * * * * * * * * * * * * * * * //

dimensions      [1 0 0 0 0 0 0];

value           nonuniform List<scalar> 
125
(
9.278621241e-23
1.786922796e-20
1.974160809e-18
1.786918419e-20
8.952048713e-23
1.786922796e-20
3.936326723e-18
5.075700728e-16
3.936322331e-18
1.762174403e-20
1.974160809e-18
5.075700728e-16
7.853717624e-14
5.075698431e-16
1.974667645e-18
1.786918419e-20
3.936322331e-18
5.075698431e-16
3.937343839e-18
1.762174806e-20
8.952048713e-23
1.762174403e-20
1.974667645e-18
1.762174806e-20
8.952191917e-23
1.786922796e-20
3.936326723e-18
5.075700728e-16
3.936322331e-18
1.762174403e-20
3.936326723e-18
1.012500113e-15
1.567342242e-13
1.012499982e-15
3.93734252e-18
5.075700728e-16
1.567342242e-13
3.032756533e-11
1.567342241e-13
5.075698434e-16
3.936322331e-18
1.012499982e-15
1.567342241e-13
1.012499983e-15
3.936322339e-18
1.762174403e-20
3.93734252e-18
5.075698434e-16
3.936322339e-18
1.786918428e-20
1.974160809e-18
5.075700728e-16
7.853717624e-14
5.075698431e-16
1.974667645e-18
5.075700728e-16
1.567342242e-13
3.032756533e-11
1.567342241e-13
5.075698434e-16
7.853717624e-14
3.032756533e-11
7.824328913e-09
3.032756533e-11
7.853717624e-14
5.075698431e-16
1.567342241e-13
3.032756533e-11
1.567342242e-13
5.075700728e-16
1.974667645e-18
5.075698434e-16
7.853717624e-14
5.075700728e-16
1.974160809e-18
1.786918419e-20
3.936322331e-18
5.075698431e-16
3.937343839e-18
1.762174806e-20
3.936322331e-18
1.012499982e-15
1.567342241e-13
1.012499983e-15
3.936322339e-18
5.075698431e-16
1.567342241e-13
3.032756533e-11
1.567342242e-13
5.075700728e-16
3.937343839e-18
1.012499983e-15
1.567342242e-13
1.012500113e-15
3.936326723e-18
1.762174806e-20
3.936322339e-18
5.075700728e-16
3.936326723e-18
1.786922796e-20
8.952048713e-23
1.762174403e-20
1.974667645e-18
1.762174806e-20
8.952191917e-23
1.762174403e-20
3.93734252e-18
5.075698434e-16
3.936322339e-18
1.786918428e-20
1.974667645e-18
5.075698434e-16
7.853717624e-14
5.075700728e-16
1.974160809e-18
1.762174806e-20
3.936322339e-18
5.075700728e-16
3.936326723e-18
1.786922796e-20
8.952191917e-23
1.786918428e-20
1.974160809e-18
1.786922796e-20
9.278621241e-23
)
;


// ************************************************************************* //
