/*--------------------------------*- C++ -*----------------------------------*\
  =========                 |
  \\      /  F ield         | OpenFOAM: The Open Source CFD Toolbox
   \\    /   O peration     | Website:  https://openfoam.org
    \\  /    A nd           | Version:  7
     \\/     M anipulation  |
\*---------------------------------------------------------------------------*/
FoamFile
{
    version     2.0;
    format      ascii;
    class       volScalarField::Internal;
    location    "0.001";
    object      bioCloud:rhoTrans_CH4;
}
// * * * * * * * * * * * * * * * * * * * * * * * * * * * * * * * * * * * * * //

dimensions      [1 0 0 0 0 0 0];

value           nonuniform List<scalar> 
125
(
2.649986333e-37
5.10347482e-35
5.638229029e-33
5.10346232e-35
2.556716793e-37
5.10347482e-35
1.124220048e-32
1.449626751e-30
1.124218794e-32
5.032793087e-35
5.638229029e-33
1.449626751e-30
2.243032001e-28
1.449626095e-30
5.639676558e-33
5.10346232e-35
1.124218794e-32
1.449626095e-30
1.124510538e-32
5.03279424e-35
2.556716793e-37
5.032793087e-35
5.639676558e-33
5.03279424e-35
2.556757692e-37
5.10347482e-35
1.124220048e-32
1.449626751e-30
1.124218794e-32
5.032793087e-35
1.124220048e-32
2.891713532e-30
4.476349895e-28
2.89171316e-30
1.124510161e-32
1.449626751e-30
4.476349895e-28
8.661592228e-26
4.476349892e-28
1.449626095e-30
1.124218794e-32
2.89171316e-30
4.476349892e-28
2.891713161e-30
1.124218796e-32
5.032793087e-35
1.124510161e-32
1.449626095e-30
1.124218796e-32
5.103462344e-35
5.638229029e-33
1.449626751e-30
2.243032001e-28
1.449626095e-30
5.639676558e-33
1.449626751e-30
4.476349895e-28
8.661592228e-26
4.476349892e-28
1.449626095e-30
2.243032001e-28
8.661592228e-26
2.234638547e-23
8.661592228e-26
2.243032001e-28
1.449626095e-30
4.476349892e-28
8.661592228e-26
4.476349895e-28
1.449626751e-30
5.639676558e-33
1.449626095e-30
2.243032001e-28
1.449626751e-30
5.638229029e-33
5.10346232e-35
1.124218794e-32
1.449626095e-30
1.124510538e-32
5.03279424e-35
1.124218794e-32
2.89171316e-30
4.476349892e-28
2.891713161e-30
1.124218796e-32
1.449626095e-30
4.476349892e-28
8.661592228e-26
4.476349895e-28
1.449626751e-30
1.124510538e-32
2.891713161e-30
4.476349895e-28
2.891713532e-30
1.124220048e-32
5.03279424e-35
1.124218796e-32
1.449626751e-30
1.124220048e-32
5.10347482e-35
2.556716793e-37
5.032793087e-35
5.639676558e-33
5.03279424e-35
2.556757692e-37
5.032793087e-35
1.124510161e-32
1.449626095e-30
1.124218796e-32
5.103462344e-35
5.639676558e-33
1.449626095e-30
2.243032001e-28
1.449626751e-30
5.638229029e-33
5.03279424e-35
1.124218796e-32
1.449626751e-30
1.124220048e-32
5.10347482e-35
2.556757692e-37
5.103462344e-35
5.638229029e-33
5.10347482e-35
2.649986333e-37
)
;


// ************************************************************************* //
