/*--------------------------------*- C++ -*----------------------------------*\
  =========                 |
  \\      /  F ield         | OpenFOAM: The Open Source CFD Toolbox
   \\    /   O peration     | Website:  https://openfoam.org
    \\  /    A nd           | Version:  7
     \\/     M anipulation  |
\*---------------------------------------------------------------------------*/
FoamFile
{
    version     2.0;
    format      ascii;
    class       volScalarField::Internal;
    location    "0.001";
    object      bioCloud:rhoTrans_CO;
}
// * * * * * * * * * * * * * * * * * * * * * * * * * * * * * * * * * * * * * //

dimensions      [1 0 0 0 0 0 0];

value           nonuniform List<scalar> 
125
(
9.480232798e-37
1.825750147e-34
2.017056582e-32
1.825745675e-34
9.146564302e-37
1.825750147e-34
4.021857637e-32
5.185988657e-30
4.021853149e-32
1.800464006e-34
2.017056582e-32
5.185988657e-30
8.024368003e-28
5.18598631e-30
2.017574431e-32
1.825745675e-34
4.021853149e-32
5.18598631e-30
4.022896854e-32
1.800464418e-34
9.146564302e-37
1.800464006e-34
2.017574431e-32
1.800464418e-34
9.146710618e-37
1.825750147e-34
4.021857637e-32
5.185988657e-30
4.021853149e-32
1.800464006e-34
4.021857637e-32
1.034500334e-29
1.601398413e-27
1.034500201e-29
4.022895506e-32
5.185988657e-30
1.601398413e-27
3.098654121e-25
1.601398412e-27
5.185986313e-30
4.021853149e-32
1.034500201e-29
1.601398412e-27
1.034500201e-29
4.021853158e-32
1.800464006e-34
4.022895506e-32
5.185986313e-30
4.021853158e-32
1.825745684e-34
2.017056582e-32
5.185988657e-30
8.024368003e-28
5.18598631e-30
2.017574431e-32
5.185988657e-30
1.601398413e-27
3.098654121e-25
1.601398412e-27
5.185986313e-30
8.024368003e-28
3.098654121e-25
7.994340716e-23
3.098654121e-25
8.024368003e-28
5.18598631e-30
1.601398412e-27
3.098654121e-25
1.601398413e-27
5.185988657e-30
2.017574431e-32
5.185986313e-30
8.024368003e-28
5.185988657e-30
2.017056582e-32
1.825745675e-34
4.021853149e-32
5.18598631e-30
4.022896854e-32
1.800464418e-34
4.021853149e-32
1.034500201e-29
1.601398412e-27
1.034500201e-29
4.021853158e-32
5.18598631e-30
1.601398412e-27
3.098654121e-25
1.601398413e-27
5.185988657e-30
4.022896854e-32
1.034500201e-29
1.601398413e-27
1.034500334e-29
4.021857637e-32
1.800464418e-34
4.021853158e-32
5.185988657e-30
4.021857637e-32
1.825750147e-34
9.146564302e-37
1.800464006e-34
2.017574431e-32
1.800464418e-34
9.146710618e-37
1.800464006e-34
4.022895506e-32
5.185986313e-30
4.021853158e-32
1.825745684e-34
2.017574431e-32
5.185986313e-30
8.024368003e-28
5.185988657e-30
2.017056582e-32
1.800464418e-34
4.021853158e-32
5.185988657e-30
4.021857637e-32
1.825750147e-34
9.146710618e-37
1.825745684e-34
2.017056582e-32
1.825750147e-34
9.480232798e-37
)
;


// ************************************************************************* //
