/*--------------------------------*- C++ -*----------------------------------*\
  =========                 |
  \\      /  F ield         | OpenFOAM: The Open Source CFD Toolbox
   \\    /   O peration     | Website:  https://openfoam.org
    \\  /    A nd           | Version:  7
     \\/     M anipulation  |
\*---------------------------------------------------------------------------*/
FoamFile
{
    version     2.0;
    format      ascii;
    class       volScalarField::Internal;
    location    "0.001";
    object      bioCloud:hsCoeff;
}
// * * * * * * * * * * * * * * * * * * * * * * * * * * * * * * * * * * * * * //

dimensions      [1 2 -2 -1 0 0 0];

value           nonuniform List<scalar> 
125
(
3.945048171e-19
7.597568997e-17
8.393660316e-15
7.597550389e-17
3.806197331e-19
7.597568997e-17
1.67363212e-14
2.158066738e-12
1.673630253e-14
7.49234474e-17
8.393660316e-15
2.158066738e-12
3.339213181e-10
2.158065761e-12
8.395815259e-15
7.597550389e-17
1.673630253e-14
2.158065761e-12
1.674064574e-14
7.492346457e-17
3.806197331e-19
7.49234474e-17
8.395815259e-15
7.492346457e-17
3.806258218e-19
7.597568997e-17
1.67363212e-14
2.158066738e-12
1.673630253e-14
7.49234474e-17
1.67363212e-14
4.304908686e-12
6.663964922e-10
4.304908132e-12
1.674064013e-14
2.158066738e-12
6.663964922e-10
1.289455653e-07
6.663964918e-10
2.158065763e-12
1.673630253e-14
4.304908132e-12
6.663964918e-10
4.304908134e-12
1.673630256e-14
7.49234474e-17
1.674064013e-14
2.158065763e-12
1.673630256e-14
7.597550424e-17
8.393660316e-15
2.158066738e-12
3.339213181e-10
2.158065761e-12
8.395815259e-15
2.158066738e-12
6.663964922e-10
1.289455653e-07
6.663964918e-10
2.158065763e-12
3.339213181e-10
1.289455653e-07
3.326717803e-05
1.289455653e-07
3.339213181e-10
2.158065761e-12
6.663964918e-10
1.289455653e-07
6.663964922e-10
2.158066738e-12
8.395815259e-15
2.158065763e-12
3.339213181e-10
2.158066738e-12
8.393660316e-15
7.597550389e-17
1.673630253e-14
2.158065761e-12
1.674064574e-14
7.492346457e-17
1.673630253e-14
4.304908132e-12
6.663964918e-10
4.304908134e-12
1.673630256e-14
2.158065761e-12
6.663964918e-10
1.289455653e-07
6.663964922e-10
2.158066738e-12
1.674064574e-14
4.304908134e-12
6.663964922e-10
4.304908686e-12
1.67363212e-14
7.492346457e-17
1.673630256e-14
2.158066738e-12
1.67363212e-14
7.597568997e-17
3.806197331e-19
7.49234474e-17
8.395815259e-15
7.492346457e-17
3.806258218e-19
7.49234474e-17
1.674064013e-14
2.158065763e-12
1.673630256e-14
7.597550424e-17
8.395815259e-15
2.158065763e-12
3.339213181e-10
2.158066738e-12
8.393660316e-15
7.492346457e-17
1.673630256e-14
2.158066738e-12
1.67363212e-14
7.597568997e-17
3.806258218e-19
7.597550424e-17
8.393660316e-15
7.597568997e-17
3.945048171e-19
)
;


// ************************************************************************* //
