/*--------------------------------*- C++ -*----------------------------------*\
  =========                 |
  \\      /  F ield         | OpenFOAM: The Open Source CFD Toolbox
   \\    /   O peration     | Website:  https://openfoam.org
    \\  /    A nd           | Version:  7
     \\/     M anipulation  |
\*---------------------------------------------------------------------------*/
FoamFile
{
    version     2.0;
    format      ascii;
    class       volScalarField::Internal;
    location    "0.001";
    object      bioCloud:hsTrans;
}
// * * * * * * * * * * * * * * * * * * * * * * * * * * * * * * * * * * * * * //

dimensions      [1 2 -2 0 0 0 0];

value           nonuniform List<scalar> 
125
(
-3.097083053e-16
-5.964515808e-14
-6.589491936e-12
-5.964501199e-14
-2.988077392e-16
-5.964515808e-14
-1.313894647e-11
-1.694202867e-09
-1.313893181e-11
-5.881908892e-14
-6.589491936e-12
-1.694202867e-09
-2.621468764e-07
-1.6942021e-09
-6.591183687e-12
-5.964501199e-14
-1.313893181e-11
-1.6942021e-09
-1.314234147e-11
-5.88191024e-14
-2.988077392e-16
-5.881908892e-14
-6.591183687e-12
-5.88191024e-14
-2.988125191e-16
-5.964515808e-14
-1.313894647e-11
-1.694202867e-09
-1.313893181e-11
-5.881908892e-14
-1.313894647e-11
-3.379593646e-09
-5.231584489e-07
-3.379593211e-09
-1.314233707e-11
-1.694202867e-09
-5.231584489e-07
-0.0001012294673
-5.231584486e-07
-1.694202101e-09
-1.313893181e-11
-3.379593211e-09
-5.231584486e-07
-3.379593213e-09
-1.313893184e-11
-5.881908892e-14
-1.314233707e-11
-1.694202101e-09
-1.313893184e-11
-5.964501227e-14
-6.589491936e-12
-1.694202867e-09
-2.621468764e-07
-1.6942021e-09
-6.591183687e-12
-1.694202867e-09
-5.231584489e-07
-0.0001012294673
-5.231584486e-07
-1.694202101e-09
-2.621468764e-07
-0.0001012294673
-0.02611659194
-0.0001012294673
-2.621468764e-07
-1.6942021e-09
-5.231584486e-07
-0.0001012294673
-5.231584489e-07
-1.694202867e-09
-6.591183687e-12
-1.694202101e-09
-2.621468764e-07
-1.694202867e-09
-6.589491936e-12
-5.964501199e-14
-1.313893181e-11
-1.6942021e-09
-1.314234147e-11
-5.88191024e-14
-1.313893181e-11
-3.379593211e-09
-5.231584486e-07
-3.379593213e-09
-1.313893184e-11
-1.6942021e-09
-5.231584486e-07
-0.0001012294673
-5.231584489e-07
-1.694202867e-09
-1.314234147e-11
-3.379593213e-09
-5.231584489e-07
-3.379593646e-09
-1.313894647e-11
-5.88191024e-14
-1.313893184e-11
-1.694202867e-09
-1.313894647e-11
-5.964515808e-14
-2.988077392e-16
-5.881908892e-14
-6.591183687e-12
-5.88191024e-14
-2.988125191e-16
-5.881908892e-14
-1.314233707e-11
-1.694202101e-09
-1.313893184e-11
-5.964501227e-14
-6.591183687e-12
-1.694202101e-09
-2.621468764e-07
-1.694202867e-09
-6.589491936e-12
-5.88191024e-14
-1.313893184e-11
-1.694202867e-09
-1.313894647e-11
-5.964515808e-14
-2.988125191e-16
-5.964501227e-14
-6.589491936e-12
-5.964515808e-14
-3.097083053e-16
)
;


// ************************************************************************* //
