/*--------------------------------*- C++ -*----------------------------------*\
  =========                 |
  \\      /  F ield         | OpenFOAM: The Open Source CFD Toolbox
   \\    /   O peration     | Website:  https://openfoam.org
    \\  /    A nd           | Version:  7
     \\/     M anipulation  |
\*---------------------------------------------------------------------------*/
FoamFile
{
    version     2.0;
    format      ascii;
    class       volScalarField;
    location    "0.001";
    object      CH4;
}
// * * * * * * * * * * * * * * * * * * * * * * * * * * * * * * * * * * * * * //

dimensions      [0 0 0 0 0 0 0];

internalField   nonuniform List<scalar> 
125
(
1.467757813e-32
2.817758605e-30
3.099987539e-28
2.817751906e-30
1.418461487e-32
2.817758605e-30
6.181060189e-28
7.923711073e-26
6.181053556e-28
2.781015042e-30
3.099987539e-28
7.923711073e-26
1.21543061e-23
7.923707648e-26
3.100738882e-28
2.817751906e-30
6.181053556e-28
7.923707648e-26
6.182567961e-28
2.78101566e-30
1.418461487e-32
2.781015042e-30
3.100738882e-28
2.78101566e-30
1.418482857e-32
2.818747533e-30
6.183112201e-28
7.926187169e-26
6.183105532e-28
2.781984081e-30
6.183112201e-28
1.581090412e-25
2.426259563e-23
1.581090209e-25
6.184609347e-28
7.926187169e-26
2.426259563e-23
4.628266842e-21
2.426259555e-23
7.926183917e-26
6.183105532e-28
1.581090209e-25
2.426259555e-23
1.58109025e-25
6.183096617e-28
2.781984081e-30
6.184609347e-28
7.926183917e-26
6.183096617e-28
2.818728638e-30
3.101380382e-28
7.926981489e-26
1.21588684e-23
7.926977992e-26
3.102122885e-28
7.926981489e-26
2.426461553e-23
4.628574198e-21
2.426461538e-23
7.92697839e-26
1.21588684e-23
4.628574198e-21
1.162001931e-18
4.628574198e-21
1.21588684e-23
7.926977992e-26
2.426461538e-23
4.628574198e-21
2.426461553e-23
7.926981485e-26
3.102122885e-28
7.92697839e-26
1.21588684e-23
7.926981485e-26
3.101380377e-28
1.080799622e-29
2.648192597e-27
3.878772165e-25
2.648277157e-27
1.077277984e-29
2.648192597e-27
7.739794477e-25
1.400701924e-22
7.739795677e-25
2.648192691e-27
3.878772165e-25
1.400701924e-22
3.295162831e-20
1.400702081e-22
3.878773492e-25
2.648277157e-27
7.739795677e-25
1.400702081e-22
7.739796639e-25
2.648194318e-27
1.077277984e-29
2.648192691e-27
3.878773492e-25
2.648194318e-27
1.080800875e-29
2.9236153e-31
7.057779783e-29
1.016200839e-26
7.064139584e-29
2.919268811e-31
7.057779783e-29
2.027662064e-26
3.591101002e-24
2.029198335e-26
7.071215964e-29
1.016200839e-26
3.591101002e-24
8.184213035e-22
3.591102348e-24
1.016969594e-26
7.064139584e-29
2.029198335e-26
3.591102348e-24
2.029199061e-26
7.071221821e-29
2.919268811e-31
7.071215964e-29
1.016969594e-26
7.071221821e-29
2.933821617e-31
)
;

boundaryField
{
    top
    {
        type            inletOutlet;
        inletValue      uniform 0;
        value           nonuniform List<scalar> 
25
(
2.9236153e-31
7.057779783e-29
1.016200839e-26
7.064139584e-29
2.919268811e-31
7.057779783e-29
2.027662064e-26
3.591101002e-24
2.029198335e-26
7.071215964e-29
1.016200839e-26
3.591101002e-24
8.184213035e-22
3.591102348e-24
1.016969594e-26
7.064139584e-29
2.029198335e-26
3.591102348e-24
2.029199061e-26
7.071221821e-29
2.919268811e-31
7.071215964e-29
1.016969594e-26
7.071221821e-29
2.933821617e-31
)
;
    }
    bottom
    {
        type            fixedValue;
        value           uniform 0;
    }
    walls
    {
        type            zeroGradient;
    }
}


// ************************************************************************* //
