/*--------------------------------*- C++ -*----------------------------------*\
  =========                 |
  \\      /  F ield         | OpenFOAM: The Open Source CFD Toolbox
   \\    /   O peration     | Website:  https://openfoam.org
    \\  /    A nd           | Version:  7
     \\/     M anipulation  |
\*---------------------------------------------------------------------------*/
FoamFile
{
    version     2.0;
    format      ascii;
    class       volScalarField;
    location    "0.001";
    object      CH4;
}
// * * * * * * * * * * * * * * * * * * * * * * * * * * * * * * * * * * * * * //

dimensions      [0 0 0 0 0 0 0];

internalField   nonuniform List<scalar> 
125
(
1.477145471e-40
4.665448659e-37
8.843462047e-34
4.665391663e-37
8.863131745e-41
4.665448659e-37
1.768381248e-33
4.190160165e-30
1.768368453e-33
3.2659068e-37
8.843462047e-34
4.190160165e-30
1.323806824e-26
4.190145319e-30
7.369654544e-34
4.665391663e-37
1.768368453e-33
4.190145319e-30
1.473650935e-33
3.265890397e-37
8.863131745e-41
3.2659068e-37
7.369654544e-34
3.265890397e-37
8.863339477e-41
4.667544216e-37
1.769037426e-33
4.191393186e-30
1.769009839e-33
3.267263048e-37
1.769037426e-33
8.381606599e-30
2.64791334e-26
8.381541103e-30
1.47419559e-33
4.191393186e-30
2.64791334e-26
1.25479455e-22
2.647906414e-26
4.191360341e-30
1.769009839e-33
8.381541103e-30
2.647906414e-26
8.381541106e-30
1.769009822e-33
3.267263048e-37
1.47419559e-33
4.191360341e-30
1.769009822e-33
4.667423044e-37
8.84708498e-34
4.191500993e-30
1.324116857e-26
4.191435832e-30
7.372393618e-34
4.191500993e-30
2.647954201e-26
1.254804231e-22
2.647940465e-26
4.191435807e-30
1.324116857e-26
1.254804231e-22
1.189251503e-18
1.254804231e-22
1.324116857e-26
4.191435832e-30
2.647940465e-26
1.254804231e-22
2.647954201e-26
4.191500993e-30
7.372393618e-34
4.191435807e-30
1.324116857e-26
4.191500993e-30
8.84708498e-34
1.082920099e-34
4.104398163e-31
9.72465579e-28
3.420307748e-31
7.580481479e-35
4.104398163e-31
1.944657463e-27
6.143584936e-24
1.944657464e-27
4.104398123e-31
9.72465579e-28
6.143584936e-24
2.911332835e-20
6.143601006e-24
9.724731939e-28
3.420307748e-31
1.944657464e-27
6.143601006e-24
1.944672661e-27
4.104462175e-31
7.580481479e-35
4.104398123e-31
9.724731939e-28
4.104462175e-31
1.082948187e-34
4.773389398e-36
1.758793738e-32
3.968541238e-29
1.758767226e-32
4.773389277e-36
1.758793738e-32
7.935742097e-29
2.256259258e-25
9.522760231e-29
2.51251333e-32
3.968541238e-29
2.256259258e-25
7.127787287e-22
2.256271137e-25
4.762264735e-29
1.758767226e-32
9.522760231e-29
2.256271137e-25
9.522853728e-29
2.512552713e-32
4.773389277e-36
2.51251333e-32
4.762264735e-29
2.512552713e-32
7.955648592e-36
)
;

boundaryField
{
    top
    {
        type            inletOutlet;
        inletValue      uniform 0;
        value           nonuniform List<scalar> 
25
(
4.773389398e-36
1.758793738e-32
3.968541238e-29
1.758767226e-32
4.773389277e-36
1.758793738e-32
7.935742097e-29
2.256259258e-25
9.522760231e-29
2.51251333e-32
3.968541238e-29
2.256259258e-25
7.127787287e-22
2.256271137e-25
4.762264735e-29
1.758767226e-32
9.522760231e-29
2.256271137e-25
9.522853728e-29
2.512552713e-32
4.773389277e-36
2.51251333e-32
4.762264735e-29
2.512552713e-32
7.955648592e-36
)
;
    }
    bottom
    {
        type            fixedValue;
        value           uniform 0;
    }
    walls
    {
        type            zeroGradient;
    }
}


// ************************************************************************* //
