/*--------------------------------*- C++ -*----------------------------------*\
  =========                 |
  \\      /  F ield         | OpenFOAM: The Open Source CFD Toolbox
   \\    /   O peration     | Website:  https://openfoam.org
    \\  /    A nd           | Version:  7
     \\/     M anipulation  |
\*---------------------------------------------------------------------------*/
FoamFile
{
    version     2.0;
    format      ascii;
    class       volScalarField;
    location    "0.001";
    object      CO;
}
// * * * * * * * * * * * * * * * * * * * * * * * * * * * * * * * * * * * * * //

dimensions      [0 0 0 0 0 0 0];

internalField   nonuniform List<scalar> 
125
(
5.28443591e-40
1.66904783e-36
3.163717408e-33
1.66902744e-36
3.170754174e-40
1.66904783e-36
6.326321649e-33
1.499015045e-29
6.326275875e-33
1.168366658e-36
3.163717408e-33
1.499015045e-29
4.735872299e-26
1.499009734e-29
2.636467964e-33
1.66902744e-36
6.326275875e-33
1.499009734e-29
5.27193433e-33
1.16836079e-36
3.170754174e-40
1.168366658e-36
2.636467964e-33
1.16836079e-36
3.170828489e-40
1.669797508e-36
6.328669101e-33
1.499456154e-29
6.328570412e-33
1.168851851e-36
6.328669101e-33
2.998490248e-29
9.472816738e-26
2.998466817e-29
5.273882814e-33
1.499456154e-29
9.472816738e-26
4.488983318e-22
9.47279196e-26
1.499444404e-29
6.328570412e-33
2.998466817e-29
9.47279196e-26
2.998466818e-29
6.328570349e-33
1.168851851e-36
5.273882814e-33
1.499444404e-29
6.328570349e-33
1.669754159e-36
3.1650135e-33
1.499494722e-29
4.736981431e-26
1.49947141e-29
2.637447858e-33
1.499494722e-29
9.472962918e-26
4.489017954e-22
9.472913777e-26
1.499471401e-29
4.736981431e-26
4.489017954e-22
4.254505378e-18
4.489017954e-22
4.736981431e-26
1.49947141e-29
9.472913777e-26
4.489017954e-22
9.472962918e-26
1.499494722e-29
2.637447858e-33
1.499471401e-29
4.736981431e-26
1.499494722e-29
3.1650135e-33
3.874108525e-34
1.468333991e-30
3.478961367e-27
1.223603054e-30
2.711890557e-34
1.468333991e-30
6.956943601e-27
2.197845878e-23
6.956943604e-27
1.468333977e-30
3.478961367e-27
2.197845878e-23
1.041519071e-19
2.197851627e-23
3.478988609e-27
1.223603054e-30
6.956943604e-27
2.197851627e-23
6.956997969e-27
1.468356891e-30
2.711890557e-34
1.468333977e-30
3.478988609e-27
1.468356891e-30
3.874209008e-34
1.707663249e-35
6.292022668e-32
1.419731654e-28
6.291927821e-32
1.707663206e-35
6.292022668e-32
2.838983793e-28
8.071688049e-25
3.406733942e-28
8.988427968e-32
1.419731654e-28
8.071688049e-25
2.549940804e-21
8.071730546e-25
1.70368344e-28
6.291927821e-32
3.406733942e-28
8.071730546e-25
3.40676739e-28
8.988568862e-32
1.707663206e-35
8.988427968e-32
1.70368344e-28
8.988568862e-32
2.846105271e-35
)
;

boundaryField
{
    top
    {
        type            inletOutlet;
        inletValue      uniform 0;
        value           nonuniform List<scalar> 
25
(
1.707663249e-35
6.292022668e-32
1.419731654e-28
6.291927821e-32
1.707663206e-35
6.292022668e-32
2.838983793e-28
8.071688049e-25
3.406733942e-28
8.988427968e-32
1.419731654e-28
8.071688049e-25
2.549940804e-21
8.071730546e-25
1.70368344e-28
6.291927821e-32
3.406733942e-28
8.071730546e-25
3.40676739e-28
8.988568862e-32
1.707663206e-35
8.988427968e-32
1.70368344e-28
8.988568862e-32
2.846105271e-35
)
;
    }
    bottom
    {
        type            fixedValue;
        value           uniform 0;
    }
    walls
    {
        type            zeroGradient;
    }
}


// ************************************************************************* //
