/*--------------------------------*- C++ -*----------------------------------*\
  =========                 |
  \\      /  F ield         | OpenFOAM: The Open Source CFD Toolbox
   \\    /   O peration     | Website:  https://openfoam.org
    \\  /    A nd           | Version:  7
     \\/     M anipulation  |
\*---------------------------------------------------------------------------*/
FoamFile
{
    version     2.0;
    format      ascii;
    class       volScalarField;
    location    "0.001";
    object      CO;
}
// * * * * * * * * * * * * * * * * * * * * * * * * * * * * * * * * * * * * * //

dimensions      [0 0 0 0 0 0 0];

internalField   nonuniform List<scalar> 
125
(
5.250851895e-32
1.008043219e-29
1.109009627e-27
1.008040823e-29
5.074496025e-32
1.008043219e-29
2.211252518e-27
2.834679736e-25
2.211250146e-27
9.948983391e-30
1.109009627e-27
2.834679736e-25
4.34816021e-23
2.834678511e-25
1.109278417e-27
1.008040823e-29
2.211250146e-27
2.834678511e-25
2.211791919e-27
9.948985599e-30
5.074496025e-32
9.948983391e-30
1.109278417e-27
9.948985599e-30
5.074572475e-32
1.008397005e-29
2.211986618e-27
2.83556555e-25
2.211984233e-27
9.952450092e-30
2.211986618e-27
5.656295275e-25
8.679858155e-23
5.656294552e-25
2.212522217e-27
2.83556555e-25
8.679858155e-23
1.655746166e-20
8.679858125e-23
2.835564387e-25
2.211984233e-27
5.656294552e-25
8.679858125e-23
5.656294696e-25
2.211981043e-27
9.952450092e-30
2.212522217e-27
2.835564387e-25
2.211981043e-27
1.008390245e-29
1.109507911e-27
2.835849716e-25
4.349792358e-23
2.835848465e-25
1.109773539e-27
2.835849716e-25
8.680580767e-23
1.655856122e-20
8.680580714e-23
2.835848607e-25
4.349792358e-23
1.655856122e-20
4.157020992e-18
1.655856122e-20
4.349792358e-23
2.835848465e-25
8.680580714e-23
1.655856122e-20
8.680580768e-23
2.835849714e-25
1.109773539e-27
2.835848607e-25
4.349792358e-23
2.835849714e-25
1.10950791e-27
3.866522591e-29
9.473815771e-27
1.387617085e-24
9.474118279e-27
3.853924054e-29
9.473815771e-27
2.768884221e-24
5.010961814e-22
2.768884651e-24
9.473816107e-27
1.387617085e-24
5.010961814e-22
1.1788329e-19
5.010962376e-22
1.387617559e-24
9.474118279e-27
2.768884651e-24
5.010962376e-22
2.768884995e-24
9.473821926e-27
3.853924054e-29
9.473816107e-27
1.387617559e-24
9.473821926e-27
3.866527073e-29
1.045913079e-30
2.524895866e-28
3.635422718e-26
2.527171062e-28
1.044358138e-30
2.524895866e-28
7.253889638e-26
1.284703739e-23
7.259385591e-26
2.529702612e-28
3.635422718e-26
1.284703739e-23
2.927873396e-21
1.28470422e-23
3.638172915e-26
2.527171062e-28
7.259385591e-26
1.28470422e-23
7.25938819e-26
2.529704708e-28
1.044358138e-30
2.529702612e-28
3.638172915e-26
2.529704708e-28
1.049564353e-30
)
;

boundaryField
{
    top
    {
        type            inletOutlet;
        inletValue      uniform 0;
        value           nonuniform List<scalar> 
25
(
1.045913079e-30
2.524895866e-28
3.635422718e-26
2.527171062e-28
1.044358138e-30
2.524895866e-28
7.253889638e-26
1.284703739e-23
7.259385591e-26
2.529702612e-28
3.635422718e-26
1.284703739e-23
2.927873396e-21
1.28470422e-23
3.638172915e-26
2.527171062e-28
7.259385591e-26
1.28470422e-23
7.25938819e-26
2.529704708e-28
1.044358138e-30
2.529702612e-28
3.638172915e-26
2.529704708e-28
1.049564353e-30
)
;
    }
    bottom
    {
        type            fixedValue;
        value           uniform 0;
    }
    walls
    {
        type            zeroGradient;
    }
}


// ************************************************************************* //
