/*--------------------------------*- C++ -*----------------------------------*\
  =========                 |
  \\      /  F ield         | OpenFOAM: The Open Source CFD Toolbox
   \\    /   O peration     | Website:  https://openfoam.org
    \\  /    A nd           | Version:  7
     \\/     M anipulation  |
\*---------------------------------------------------------------------------*/
FoamFile
{
    version     2.0;
    format      ascii;
    class       volScalarField;
    location    "0.001";
    object      CO2;
}
// * * * * * * * * * * * * * * * * * * * * * * * * * * * * * * * * * * * * * //

dimensions      [0 0 0 0 0 0 0];

internalField   nonuniform List<scalar> 
125
(
1.008825088e-31
1.936712957e-29
2.130695661e-27
1.936708352e-29
9.749425433e-32
1.936712957e-29
4.248390665e-27
5.446156343e-25
4.248386106e-27
1.911458226e-29
2.130695661e-27
5.446156343e-25
8.353945601e-23
5.446153989e-25
2.131212076e-27
1.936708352e-29
4.248386106e-27
5.446153989e-25
4.249426993e-27
1.911458651e-29
9.749425433e-32
1.911458226e-29
2.131212076e-27
1.911458651e-29
9.749572315e-32
1.93739267e-29
4.249801062e-27
5.447858223e-25
4.249796479e-27
1.91212427e-29
4.249801062e-27
1.086721297e-24
1.667626291e-22
1.086721158e-24
4.250830086e-27
5.447858223e-25
1.667626291e-22
3.181118618e-20
1.667626285e-22
5.447855988e-25
4.249796479e-27
1.086721158e-24
1.667626285e-22
1.086721186e-24
4.249790351e-27
1.91212427e-29
4.250830086e-27
5.447855988e-25
4.249790351e-27
1.937379683e-29
2.131652995e-27
5.448404178e-25
8.357081381e-23
5.448401775e-25
2.132163335e-27
5.448404178e-25
1.667765124e-22
3.181329871e-20
1.667765114e-22
5.448402048e-25
8.357081381e-23
3.181329871e-20
7.986717497e-18
3.181329871e-20
8.357081381e-23
5.448401775e-25
1.667765114e-22
3.181329871e-20
1.667765124e-22
5.448404176e-25
2.132163335e-27
5.448402048e-25
8.357081381e-23
5.448404176e-25
2.131652992e-27
7.428594585e-29
1.82016618e-26
2.665972981e-24
1.820224299e-26
7.404389521e-29
1.82016618e-26
5.319746063e-24
9.627359705e-22
5.319746888e-24
1.820166244e-26
2.665972981e-24
9.627359705e-22
2.264844312e-19
9.627360785e-22
2.665973893e-24
1.820224299e-26
5.319746888e-24
9.627360785e-22
5.319747549e-24
1.820167362e-26
7.404389521e-29
1.820166244e-26
2.665973893e-24
1.820167362e-26
7.428603195e-29
2.009470798e-30
4.850981034e-28
6.984591679e-26
4.855352277e-28
2.006483352e-30
4.850981034e-28
1.393660686e-25
2.468249703e-23
1.394716602e-25
4.860216043e-28
6.984591679e-26
2.468249703e-23
5.625205579e-21
2.468250628e-23
6.989875522e-26
4.855352277e-28
1.394716602e-25
2.468250628e-23
1.394717101e-25
4.860220069e-28
2.006483352e-30
4.860216043e-28
6.989875522e-26
4.860220069e-28
2.016485844e-30
)
;

boundaryField
{
    top
    {
        type            inletOutlet;
        inletValue      uniform 0;
        value           nonuniform List<scalar> 
25
(
2.009470798e-30
4.850981034e-28
6.984591679e-26
4.855352277e-28
2.006483352e-30
4.850981034e-28
1.393660686e-25
2.468249703e-23
1.394716602e-25
4.860216043e-28
6.984591679e-26
2.468249703e-23
5.625205579e-21
2.468250628e-23
6.989875522e-26
4.855352277e-28
1.394716602e-25
2.468250628e-23
1.394717101e-25
4.860220069e-28
2.006483352e-30
4.860216043e-28
6.989875522e-26
4.860220069e-28
2.016485844e-30
)
;
    }
    bottom
    {
        type            fixedValue;
        value           uniform 0;
    }
    walls
    {
        type            zeroGradient;
    }
}


// ************************************************************************* //
