/*--------------------------------*- C++ -*----------------------------------*\
  =========                 |
  \\      /  F ield         | OpenFOAM: The Open Source CFD Toolbox
   \\    /   O peration     | Website:  https://openfoam.org
    \\  /    A nd           | Version:  7
     \\/     M anipulation  |
\*---------------------------------------------------------------------------*/
FoamFile
{
    version     2.0;
    format      ascii;
    class       volScalarField;
    location    "0.001";
    object      CO2;
}
// * * * * * * * * * * * * * * * * * * * * * * * * * * * * * * * * * * * * * //

dimensions      [0 0 0 0 0 0 0];

internalField   nonuniform List<scalar> 
125
(
1.01527745e-39
3.206674571e-36
6.07832321e-33
3.206635396e-36
6.091842664e-40
3.206674571e-36
1.215450773e-32
2.879997409e-29
1.215441979e-32
2.244735941e-36
6.07832321e-33
2.879997409e-29
9.098841267e-26
2.879987205e-29
5.065340025e-33
3.206635396e-36
1.215441979e-32
2.879987205e-29
1.012875572e-32
2.244724667e-36
6.091842664e-40
2.244735941e-36
5.065340025e-33
2.244724667e-36
6.091985444e-40
3.208114898e-36
1.21590178e-32
2.880844894e-29
1.215882819e-32
2.245668123e-36
1.21590178e-32
5.760878902e-29
1.819974239e-25
5.760833885e-29
1.013249926e-32
2.880844894e-29
1.819974239e-25
8.624503384e-22
1.819969479e-25
2.880822319e-29
1.215882819e-32
5.760833885e-29
1.819969479e-25
5.760833887e-29
1.215882807e-32
2.245668123e-36
1.013249926e-32
2.880822319e-29
1.215882807e-32
3.208031613e-36
6.080813339e-33
2.880918993e-29
9.100972198e-26
2.880874206e-29
5.067222656e-33
2.880918993e-29
1.820002324e-25
8.624569928e-22
1.819992883e-25
2.880874189e-29
9.100972198e-26
8.624569928e-22
8.174010333e-18
8.624569928e-22
9.100972198e-26
2.880874206e-29
1.819992883e-25
8.624569928e-22
1.820002324e-25
2.880918993e-29
5.067222656e-33
2.880874189e-29
9.100972198e-26
2.880918993e-29
6.080813339e-33
7.443169135e-34
2.821051132e-30
6.683988768e-27
2.35085941e-30
5.210246425e-34
2.821051132e-30
1.336609637e-26
4.222633026e-23
1.336609637e-26
2.821051104e-30
6.683988768e-27
4.222633026e-23
2.001028765e-19
4.222644072e-23
6.684041107e-27
2.35085941e-30
1.336609637e-26
4.222644072e-23
1.336620082e-26
2.821095129e-30
5.210246425e-34
2.821051104e-30
6.684041107e-27
2.821095129e-30
7.443362189e-34
3.280864825e-35
1.208861048e-31
2.727673415e-28
1.208842825e-31
3.280864742e-35
1.208861048e-31
5.454425554e-28
1.550781011e-24
6.545221116e-28
1.72691057e-31
2.727673415e-28
1.550781011e-24
4.899098868e-21
1.550789176e-24
3.273218578e-28
1.208842825e-31
6.545221116e-28
1.550789176e-24
6.545285379e-28
1.72693764e-31
3.280864742e-35
1.72691057e-31
3.273218578e-28
1.72693764e-31
5.468107764e-35
)
;

boundaryField
{
    top
    {
        type            inletOutlet;
        inletValue      uniform 0;
        value           nonuniform List<scalar> 
25
(
3.280864825e-35
1.208861048e-31
2.727673415e-28
1.208842825e-31
3.280864742e-35
1.208861048e-31
5.454425554e-28
1.550781011e-24
6.545221116e-28
1.72691057e-31
2.727673415e-28
1.550781011e-24
4.899098868e-21
1.550789176e-24
3.273218578e-28
1.208842825e-31
6.545221116e-28
1.550789176e-24
6.545285379e-28
1.72693764e-31
3.280864742e-35
1.72691057e-31
3.273218578e-28
1.72693764e-31
5.468107764e-35
)
;
    }
    bottom
    {
        type            fixedValue;
        value           uniform 0;
    }
    walls
    {
        type            zeroGradient;
    }
}


// ************************************************************************* //
