/*--------------------------------*- C++ -*----------------------------------*\
  =========                 |
  \\      /  F ield         | OpenFOAM: The Open Source CFD Toolbox
   \\    /   O peration     | Website:  https://openfoam.org
    \\  /    A nd           | Version:  7
     \\/     M anipulation  |
\*---------------------------------------------------------------------------*/
FoamFile
{
    version     2.0;
    format      ascii;
    class       volScalarField;
    location    "0.001";
    object      G;
}
// * * * * * * * * * * * * * * * * * * * * * * * * * * * * * * * * * * * * * //

dimensions      [1 0 -3 0 0 0 0];

internalField   nonuniform List<scalar> 
125
(
469707.2587
469691.5533
469683.9978
469691.5428
469707.2383
469691.5533
469672.6727
469661.464
469672.6722
469691.5585
469683.9978
469661.464
469644.2568
469661.4734
469684.0144
469691.5428
469672.6722
469661.4734
469672.6642
469691.5464
469707.2383
469691.5585
469684.0144
469691.5464
469707.2605
469702.5724
469683.9772
469672.9222
469683.9743
469702.5596
469683.9772
469657.7645
469634.2063
469657.7623
469683.9749
469672.9222
469634.2063
469575.814
469634.1952
469672.9224
469683.9743
469657.7623
469634.1952
469657.7485
469683.9704
469702.5596
469683.9749
469672.9224
469683.9704
469702.5676
469698.7173
469676.6078
469659.6368
469676.6117
469698.7293
469676.6078
469638.0068
469579.8898
469638.0032
469676.5953
469659.6368
469579.8898
469087.2129
469579.879
469659.6213
469676.6117
469638.0032
469579.879
469637.9829
469676.5958
469698.7293
469676.5953
469659.6213
469676.5958
469698.7283
469702.54
469683.9507
469672.8942
469683.9561
469702.5544
469683.9507
469657.7302
469634.1563
469657.7248
469683.948
469672.8942
469634.1563
469575.746
469634.1519
469672.8868
469683.9561
469657.7248
469634.1519
469657.7248
469683.9525
469702.5544
469683.948
469672.8868
469683.9525
469702.5721
469707.1914
469691.4886
469683.9407
469691.4909
469707.2152
469691.4886
469672.609
469661.4049
469672.6054
469691.495
469683.9407
469661.4049
469644.1865
469661.4039
469683.9512
469691.4909
469672.6054
469661.4039
469672.6224
469691.4988
469707.2152
469691.495
469683.9512
469691.4988
469707.2128
)
;

boundaryField
{
    top
    {
        type            zeroGradient;
    }
    bottom
    {
        type            zeroGradient;
    }
    walls
    {
        type            MarshakRadiation;
        refValue        uniform 470326.3674;
        refGradient     uniform 0;
        valueFraction   nonuniform List<scalar> 
100
(
0.01477832512
0.01477832512
0.01477832512
0.01477832512
0.01477832512
0.01477832512
0.01477832512
0.01477832512
0.01477832512
0.01477832512
0.01477832512
0.01477832512
0.01477832512
0.01477832512
0.01477832512
0.01477832512
0.01477832512
0.01477832512
0.01477832512
0.01477832512
0.01477832512
0.01477832512
0.01477832512
0.01477832512
0.01477832512
0.01477832512
0.01477832512
0.01477832512
0.01477832512
0.01477832512
0.01477832512
0.01477832512
0.01477832512
0.01477832512
0.01477832512
0.01477832512
0.01477832512
0.01477832512
0.01477832512
0.01477832512
0.01477832512
0.01477832512
0.01477832512
0.01477832512
0.01477832512
0.01477832512
0.01477832512
0.01477832512
0.01477832512
0.01477832512
0.01477832512
0.01477832512
0.01477832512
0.01477832512
0.01477832512
0.01477832512
0.01477832512
0.01477832512
0.01477832512
0.01477832512
0.01477832512
0.01477832512
0.01477832512
0.01477832512
0.01477832512
0.01477832512
0.01477832512
0.01477832512
0.01477832512
0.01477832512
0.01477832512
0.01477832512
0.01477832512
0.01477832512
0.01477832512
0.01477832512
0.01477832512
0.01477832512
0.01477832512
0.01477832512
0.01477832512
0.01477832512
0.01477832512
0.01477832512
0.01477832512
0.01477832512
0.01477832512
0.01477832512
0.01477832512
0.01477832512
0.01477832512
0.01477832512
0.01477832512
0.01477832512
0.01477832512
0.01477832512
0.01477832512
0.01477832512
0.01477832512
0.01477832512
)
;
        value           nonuniform List<scalar> 
100
(
469716.4081
469711.791
469707.993
469711.7591
469716.3417
469700.9348
469693.4707
469686.2102
469693.4446
469700.8711
469693.4909
469682.579
469669.49
469682.5514
469693.4347
469700.9244
469693.4678
469686.214
469693.4498
469700.8734
469716.388
469711.7784
469708.0047
469711.7733
469716.3652
469716.388
469711.7784
469708.0047
469711.7733
469716.3652
469700.9399
469693.4684
469686.1979
469693.4419
469700.8773
469693.5073
469682.5792
469669.4747
469682.5441
469693.4451
469700.928
469693.464
469686.1984
469693.4463
469700.8811
469716.4098
469711.7863
469708.0038
469711.7908
469716.3629
469716.388
469700.9399
469693.5073
469700.928
469716.4098
469711.7784
469693.4684
469682.5792
469693.464
469711.7863
469708.0047
469686.1979
469669.4747
469686.1984
469708.0038
469711.7733
469693.4419
469682.5441
469693.4463
469711.7908
469716.3652
469700.8773
469693.4451
469700.8811
469716.3629
469716.4081
469700.9348
469693.4909
469700.9244
469716.388
469711.791
469693.4707
469682.579
469693.4678
469711.7784
469707.993
469686.2102
469669.49
469686.214
469708.0047
469711.7591
469693.4446
469682.5514
469693.4498
469711.7733
469716.3417
469700.8711
469693.4347
469700.8734
469716.3652
)
;
        emissivityMode  lookup;
        emissivity      uniform 1;
    }
}


// ************************************************************************* //
