/*--------------------------------*- C++ -*----------------------------------*\
  =========                 |
  \\      /  F ield         | OpenFOAM: The Open Source CFD Toolbox
   \\    /   O peration     | Website:  https://openfoam.org
    \\  /    A nd           | Version:  7
     \\/     M anipulation  |
\*---------------------------------------------------------------------------*/
FoamFile
{
    version     2.0;
    format      ascii;
    class       volScalarField;
    location    "0.001";
    object      G;
}
// * * * * * * * * * * * * * * * * * * * * * * * * * * * * * * * * * * * * * //

dimensions      [1 0 -3 0 0 0 0];

internalField   nonuniform List<scalar> 
125
(
469707.2585
469691.5531
469683.9975
469691.5426
469707.238
469691.5531
469672.6724
469661.4638
469672.672
469691.5583
469683.9975
469661.4638
469644.2565
469661.4732
469684.0141
469691.5426
469672.672
469661.4732
469672.6639
469691.5462
469707.238
469691.5583
469684.0141
469691.5462
469707.2602
469702.5722
469683.977
469672.9219
469683.9741
469702.5594
469683.977
469657.7643
469634.2061
469657.762
469683.9747
469672.9219
469634.2061
469575.8138
469634.1949
469672.9221
469683.9741
469657.762
469634.1949
469657.7482
469683.9702
469702.5594
469683.9747
469672.9221
469683.9702
469702.5674
469698.7171
469676.6075
469659.6365
469676.6114
469698.7291
469676.6075
469638.0065
469579.8895
469638.0029
469676.5951
469659.6365
469579.8895
469087.2338
469579.8788
469659.6211
469676.6114
469638.0029
469579.8788
469637.9826
469676.5956
469698.7291
469676.5951
469659.6211
469676.5956
469698.7281
469702.5398
469683.9505
469672.8939
469683.9558
469702.5542
469683.9505
469657.7299
469634.156
469657.7246
469683.9478
469672.8939
469634.156
469575.746
469634.1516
469672.8865
469683.9558
469657.7246
469634.1516
469657.7245
469683.9523
469702.5542
469683.9478
469672.8865
469683.9523
469702.5719
469707.1911
469691.4884
469683.9404
469691.4907
469707.2149
469691.4884
469672.6088
469661.4047
469672.6052
469691.4947
469683.9404
469661.4047
469644.1862
469661.4036
469683.951
469691.4907
469672.6052
469661.4036
469672.6222
469691.4986
469707.2149
469691.4947
469683.951
469691.4986
469707.2126
)
;

boundaryField
{
    top
    {
        type            zeroGradient;
    }
    bottom
    {
        type            zeroGradient;
    }
    walls
    {
        type            MarshakRadiation;
        refValue        uniform 470326.3674;
        refGradient     uniform 0;
        valueFraction   nonuniform List<scalar> 
100
(
0.01477832512
0.01477832512
0.01477832512
0.01477832512
0.01477832512
0.01477832512
0.01477832512
0.01477832512
0.01477832512
0.01477832512
0.01477832512
0.01477832512
0.01477832512
0.01477832512
0.01477832512
0.01477832512
0.01477832512
0.01477832512
0.01477832512
0.01477832512
0.01477832512
0.01477832512
0.01477832512
0.01477832512
0.01477832512
0.01477832512
0.01477832512
0.01477832512
0.01477832512
0.01477832512
0.01477832512
0.01477832512
0.01477832512
0.01477832512
0.01477832512
0.01477832512
0.01477832512
0.01477832512
0.01477832512
0.01477832512
0.01477832512
0.01477832512
0.01477832512
0.01477832512
0.01477832512
0.01477832512
0.01477832512
0.01477832512
0.01477832512
0.01477832512
0.01477832512
0.01477832512
0.01477832512
0.01477832512
0.01477832512
0.01477832512
0.01477832512
0.01477832512
0.01477832512
0.01477832512
0.01477832512
0.01477832512
0.01477832512
0.01477832512
0.01477832512
0.01477832512
0.01477832512
0.01477832512
0.01477832512
0.01477832512
0.01477832512
0.01477832512
0.01477832512
0.01477832512
0.01477832512
0.01477832512
0.01477832512
0.01477832512
0.01477832512
0.01477832512
0.01477832512
0.01477832512
0.01477832512
0.01477832512
0.01477832512
0.01477832512
0.01477832512
0.01477832512
0.01477832512
0.01477832512
0.01477832512
0.01477832512
0.01477832512
0.01477832512
0.01477832512
0.01477832512
0.01477832512
0.01477832512
0.01477832512
0.01477832512
)
;
        value           nonuniform List<scalar> 
100
(
469716.4078
469711.7908
469707.9927
469711.7589
469716.3415
469700.9346
469693.4704
469686.2099
469693.4443
469700.8708
469693.4907
469682.5787
469669.4897
469682.5512
469693.4344
469700.9242
469693.4676
469686.2137
469693.4496
469700.8731
469716.3877
469711.7782
469708.0045
469711.7731
469716.365
469716.3877
469711.7782
469708.0045
469711.7731
469716.365
469700.9397
469693.4682
469686.1976
469693.4417
469700.8771
469693.507
469682.579
469669.4745
469682.5439
469693.4448
469700.9278
469693.4637
469686.1981
469693.4461
469700.8809
469716.4096
469711.7861
469708.0035
469711.7906
469716.3626
469716.3877
469700.9397
469693.507
469700.9278
469716.4096
469711.7782
469693.4682
469682.579
469693.4637
469711.7861
469708.0045
469686.1976
469669.4745
469686.1981
469708.0035
469711.7731
469693.4417
469682.5439
469693.4461
469711.7906
469716.365
469700.8771
469693.4448
469700.8809
469716.3626
469716.4078
469700.9346
469693.4907
469700.9242
469716.3877
469711.7908
469693.4704
469682.5787
469693.4676
469711.7782
469707.9927
469686.2099
469669.4897
469686.2137
469708.0045
469711.7589
469693.4443
469682.5512
469693.4496
469711.7731
469716.3415
469700.8708
469693.4344
469700.8731
469716.365
)
;
        emissivityMode  lookup;
        emissivity      uniform 1;
    }
}


// ************************************************************************* //
