/*--------------------------------*- C++ -*----------------------------------*\
  =========                 |
  \\      /  F ield         | OpenFOAM: The Open Source CFD Toolbox
   \\    /   O peration     | Website:  https://openfoam.org
    \\  /    A nd           | Version:  7
     \\/     M anipulation  |
\*---------------------------------------------------------------------------*/
FoamFile
{
    version     2.0;
    format      ascii;
    class       volScalarField;
    location    "0.001";
    object      H2;
}
// * * * * * * * * * * * * * * * * * * * * * * * * * * * * * * * * * * * * * //

dimensions      [0 0 0 0 0 0 0];

internalField   nonuniform List<scalar> 
125
(
1.955657384e-41
6.176791182e-38
1.170824553e-34
6.176715722e-38
1.17342871e-41
6.176791182e-38
2.341237146e-34
5.547535994e-31
2.341220206e-34
4.323876609e-38
1.170824553e-34
5.547535994e-31
1.752645654e-27
5.547516338e-31
9.757007425e-35
6.176715722e-38
2.341220206e-34
5.547516338e-31
1.951030815e-34
4.323854892e-38
1.17342871e-41
4.323876609e-38
9.757007425e-35
4.323854892e-38
1.173456212e-41
6.179565582e-38
2.342105888e-34
5.549168444e-31
2.342069365e-34
4.325672204e-38
2.342105888e-34
1.109677493e-30
3.505688084e-27
1.109668822e-30
1.951751907e-34
5.549168444e-31
3.505688084e-27
1.661277291e-23
3.505678914e-27
5.549124958e-31
2.342069365e-34
1.109668822e-30
3.505678914e-27
1.109668822e-30
2.342069342e-34
4.325672204e-38
1.951751907e-34
5.549124958e-31
2.342069342e-34
6.179405156e-38
1.171304209e-34
5.549311174e-31
1.75305612e-27
5.549224905e-31
9.760633804e-35
5.549311174e-31
3.505742182e-27
1.661290109e-23
3.505723996e-27
5.549224871e-31
1.75305612e-27
1.661290109e-23
1.57450199e-19
1.661290109e-23
1.75305612e-27
5.549224905e-31
3.505723996e-27
1.661290109e-23
3.505742182e-27
5.549311174e-31
9.760633804e-35
5.549224871e-31
1.75305612e-27
5.549311174e-31
1.171304209e-34
1.433725202e-35
5.433991935e-32
1.28748964e-28
4.528294765e-32
1.003613041e-35
5.433991935e-32
2.574616923e-28
8.133760337e-25
2.574616924e-28
5.433991882e-32
1.28748964e-28
8.133760337e-25
3.854440655e-21
8.133781613e-25
1.287499721e-28
4.528294765e-32
2.574616924e-28
8.133781613e-25
2.574637044e-28
5.434076682e-32
1.003613041e-35
5.433991882e-32
1.287499721e-28
5.434076682e-32
1.433762389e-35
6.319698639e-37
2.328543822e-33
5.25412502e-30
2.328508721e-33
6.319698479e-37
2.328543822e-33
1.050647545e-29
2.987160144e-26
1.260759805e-29
3.326426098e-33
5.25412502e-30
2.987160144e-26
9.436788803e-23
2.987175871e-26
6.304970212e-30
2.328508721e-33
1.260759805e-29
2.987175871e-26
1.260772184e-29
3.32647824e-33
6.319698479e-37
3.326426098e-33
6.304970212e-30
3.32647824e-33
1.053283053e-36
)
;

boundaryField
{
    top
    {
        type            inletOutlet;
        inletValue      uniform 0;
        value           nonuniform List<scalar> 
25
(
6.319698639e-37
2.328543822e-33
5.25412502e-30
2.328508721e-33
6.319698479e-37
2.328543822e-33
1.050647545e-29
2.987160144e-26
1.260759805e-29
3.326426098e-33
5.25412502e-30
2.987160144e-26
9.436788803e-23
2.987175871e-26
6.304970212e-30
2.328508721e-33
1.260759805e-29
2.987175871e-26
1.260772184e-29
3.32647824e-33
6.319698479e-37
3.326426098e-33
6.304970212e-30
3.32647824e-33
1.053283053e-36
)
;
    }
    bottom
    {
        type            fixedValue;
        value           uniform 0;
    }
    walls
    {
        type            zeroGradient;
    }
}


// ************************************************************************* //
