/*--------------------------------*- C++ -*----------------------------------*\
  =========                 |
  \\      /  F ield         | OpenFOAM: The Open Source CFD Toolbox
   \\    /   O peration     | Website:  https://openfoam.org
    \\  /    A nd           | Version:  7
     \\/     M anipulation  |
\*---------------------------------------------------------------------------*/
FoamFile
{
    version     2.0;
    format      ascii;
    class       volScalarField;
    location    "0.001";
    object      H2;
}
// * * * * * * * * * * * * * * * * * * * * * * * * * * * * * * * * * * * * * //

dimensions      [0 0 0 0 0 0 0];

internalField   nonuniform List<scalar> 
125
(
1.943228654e-33
3.730553646e-31
4.104208855e-29
3.730544777e-31
1.877963096e-33
3.730553646e-31
8.183375461e-29
1.049054705e-26
8.18336668e-29
3.681907239e-31
4.104208855e-29
1.049054705e-26
1.609161653e-24
1.049054252e-26
4.10520359e-29
3.730544777e-31
8.18336668e-29
1.049054252e-26
8.185371667e-29
3.681908056e-31
1.877963096e-33
3.681907239e-31
4.10520359e-29
3.681908056e-31
1.877991389e-33
3.731862931e-31
8.18609221e-29
1.049382527e-26
8.186083381e-29
3.683190191e-31
8.18609221e-29
2.09327463e-26
3.212230971e-24
2.093274362e-26
8.188074346e-29
1.049382527e-26
3.212230971e-24
6.127564551e-22
3.21223096e-24
1.049382096e-26
8.186083381e-29
2.093274362e-26
3.21223096e-24
2.093274415e-26
8.186071578e-29
3.683190191e-31
8.188074346e-29
1.049382096e-26
8.186071578e-29
3.731837915e-31
4.1060529e-29
1.04948769e-26
1.609765676e-24
1.049487227e-26
4.107035933e-29
1.04948769e-26
3.212498394e-24
6.127971474e-22
3.212498374e-24
1.04948728e-26
1.609765676e-24
6.127971474e-22
1.538425092e-19
6.127971474e-22
1.609765676e-24
1.049487227e-26
3.212498374e-24
6.127971474e-22
3.212498394e-24
1.04948769e-26
4.107035933e-29
1.04948728e-26
1.609765676e-24
1.04948769e-26
4.106052894e-29
1.430917809e-30
3.506057805e-28
5.135275825e-26
3.506169757e-28
1.426255359e-30
3.506057805e-28
1.024705184e-25
1.854450435e-23
1.024705343e-25
3.506057929e-28
5.135275825e-26
1.854450435e-23
4.362609945e-21
1.854450643e-23
5.135277581e-26
3.506169757e-28
1.024705343e-25
1.854450643e-23
1.02470547e-25
3.506060083e-28
1.426255359e-30
3.506057929e-28
5.135277581e-26
3.506060083e-28
1.430919468e-30
3.870701946e-32
9.344102811e-30
1.34539266e-27
9.352522829e-30
3.86494744e-32
9.344102811e-30
2.684510338e-27
4.754415411e-25
2.686544274e-27
9.361891558e-30
1.34539266e-27
4.754415411e-25
1.083543698e-22
4.754417194e-25
1.346410449e-27
9.352522829e-30
2.686544274e-27
4.754417194e-25
2.686545236e-27
9.361899313e-30
3.86494744e-32
9.361891558e-30
1.346410449e-27
9.361899313e-30
3.884214535e-32
)
;

boundaryField
{
    top
    {
        type            inletOutlet;
        inletValue      uniform 0;
        value           nonuniform List<scalar> 
25
(
3.870701946e-32
9.344102811e-30
1.34539266e-27
9.352522829e-30
3.86494744e-32
9.344102811e-30
2.684510338e-27
4.754415411e-25
2.686544274e-27
9.361891558e-30
1.34539266e-27
4.754415411e-25
1.083543698e-22
4.754417194e-25
1.346410449e-27
9.352522829e-30
2.686544274e-27
4.754417194e-25
2.686545236e-27
9.361899313e-30
3.86494744e-32
9.361891558e-30
1.346410449e-27
9.361899313e-30
3.884214535e-32
)
;
    }
    bottom
    {
        type            fixedValue;
        value           uniform 0;
    }
    walls
    {
        type            zeroGradient;
    }
}


// ************************************************************************* //
