/*--------------------------------*- C++ -*----------------------------------*\
  =========                 |
  \\      /  F ield         | OpenFOAM: The Open Source CFD Toolbox
   \\    /   O peration     | Website:  https://openfoam.org
    \\  /    A nd           | Version:  7
     \\/     M anipulation  |
\*---------------------------------------------------------------------------*/
FoamFile
{
    version     2.0;
    format      ascii;
    class       volScalarField;
    location    "0.001";
    object      H2O;
}
// * * * * * * * * * * * * * * * * * * * * * * * * * * * * * * * * * * * * * //

dimensions      [0 0 0 0 0 0 0];

internalField   nonuniform List<scalar> 
125
(
5.17205435e-26
1.633552992e-22
3.09643615e-19
1.633533035e-22
3.103323268e-26
1.633552992e-22
6.191782806e-19
1.467136212e-15
6.191738006e-19
1.143519566e-22
3.09643615e-19
1.467136212e-15
4.635156778e-12
1.467131014e-15
2.580399466e-19
1.633533035e-22
6.191738006e-19
1.467131014e-15
5.159818635e-19
1.143513822e-22
3.103323268e-26
1.143519566e-22
2.580399466e-19
1.143513822e-22
3.103396003e-26
1.634286727e-22
6.194080336e-19
1.46756794e-15
6.193983745e-19
1.14399444e-22
6.194080336e-19
2.934722797e-15
9.271362895e-12
2.934699864e-15
5.161725682e-19
1.46756794e-15
9.271362895e-12
4.393518267e-08
9.271338645e-12
1.46755644e-15
6.193983745e-19
2.934699864e-15
9.271338645e-12
2.934699865e-15
6.193983684e-19
1.14399444e-22
5.161725682e-19
1.46755644e-15
6.193983684e-19
1.6342443e-22
3.097704679e-19
1.467605688e-15
4.636242323e-12
1.467582872e-15
2.581358521e-19
1.467605688e-15
9.271505967e-12
4.393552166e-08
9.271457871e-12
1.467582864e-15
4.636242323e-12
4.393552166e-08
0.0004164026857
4.393552166e-08
4.636242323e-12
1.467582872e-15
9.271457871e-12
4.393552166e-08
9.271505967e-12
1.467605688e-15
2.581358521e-19
1.467582864e-15
4.636242323e-12
1.467605688e-15
3.097704679e-19
3.79171972e-20
1.437107637e-16
3.404975967e-13
1.197581275e-16
2.654218084e-20
1.437107637e-16
6.808993624e-13
2.151105346e-09
6.808993627e-13
1.437107623e-16
3.404975967e-13
2.151105346e-09
1.019369585e-05
2.151110973e-09
3.40500263e-13
1.197581275e-16
6.808993627e-13
2.151110973e-09
6.809046836e-13
1.43713005e-16
2.654218084e-20
1.437107623e-16
3.40500263e-13
1.43713005e-16
3.791818067e-20
1.671347195e-21
6.158213245e-18
1.389538903e-14
6.158120415e-18
1.671347153e-21
6.158213245e-18
2.778608488e-14
7.900031337e-11
3.334284568e-14
8.797275389e-18
1.389538903e-14
7.900031337e-11
2.495712438e-07
7.90007293e-11
1.667452023e-14
6.158120415e-18
3.334284568e-14
7.90007293e-11
3.334317305e-14
8.797413287e-18
1.671347153e-21
8.797275389e-18
1.667452023e-14
8.797413287e-18
2.785578517e-21
)
;

boundaryField
{
    top
    {
        type            inletOutlet;
        inletValue      uniform 0;
        value           nonuniform List<scalar> 
25
(
1.671347195e-21
6.158213245e-18
1.389538903e-14
6.158120415e-18
1.671347153e-21
6.158213245e-18
2.778608488e-14
7.900031337e-11
3.334284568e-14
8.797275389e-18
1.389538903e-14
7.900031337e-11
2.495712438e-07
7.90007293e-11
1.667452023e-14
6.158120415e-18
3.334284568e-14
7.90007293e-11
3.334317305e-14
8.797413287e-18
1.671347153e-21
8.797275389e-18
1.667452023e-14
8.797413287e-18
2.785578517e-21
)
;
    }
    bottom
    {
        type            fixedValue;
        value           uniform 0;
    }
    walls
    {
        type            zeroGradient;
    }
}


// ************************************************************************* //
