/*--------------------------------*- C++ -*----------------------------------*\
  =========                 |
  \\      /  F ield         | OpenFOAM: The Open Source CFD Toolbox
   \\    /   O peration     | Website:  https://openfoam.org
    \\  /    A nd           | Version:  7
     \\/     M anipulation  |
\*---------------------------------------------------------------------------*/
FoamFile
{
    version     2.0;
    format      ascii;
    class       volScalarField;
    location    "0.001";
    object      H2O;
}
// * * * * * * * * * * * * * * * * * * * * * * * * * * * * * * * * * * * * * //

dimensions      [0 0 0 0 0 0 0];

internalField   nonuniform List<scalar> 
125
(
5.13918455e-18
9.866056484e-16
1.085424852e-13
9.866033027e-16
4.966579156e-18
9.866056484e-16
2.164226873e-13
2.774395964e-11
2.164224551e-13
9.737403142e-16
1.085424852e-13
2.774395964e-11
4.255689976e-09
2.774394765e-11
1.085687926e-13
9.866033027e-16
2.164224551e-13
2.774394765e-11
2.164754803e-13
9.737405303e-16
4.966579156e-18
9.737403142e-16
1.085687926e-13
9.737405303e-16
4.966653981e-18
9.8695191e-16
2.164945362e-13
2.77526294e-11
2.164943027e-13
9.740796117e-16
2.164945362e-13
5.536005561e-11
8.495267781e-09
5.536004854e-11
2.16546957e-13
2.77526294e-11
8.495267781e-09
1.620534208e-06
8.495267752e-09
2.775261802e-11
2.164943027e-13
5.536004854e-11
8.495267752e-09
5.536004994e-11
2.164939905e-13
9.740796117e-16
2.16546957e-13
2.775261802e-11
2.164939905e-13
9.869452941e-16
1.08591254e-13
2.775541062e-11
4.257287414e-09
2.775539838e-11
1.086172519e-13
2.775541062e-11
8.495975027e-09
1.620641825e-06
8.495974975e-09
2.775539977e-11
4.257287414e-09
1.620641825e-06
0.0004068615624
1.620641825e-06
4.257287414e-09
2.775539838e-11
8.495974975e-09
1.620641825e-06
8.495975027e-09
2.775541061e-11
1.086172519e-13
2.775539977e-11
4.257287414e-09
2.775541061e-11
1.085912538e-13
3.784295113e-15
9.272340682e-13
1.358107299e-10
9.272636758e-13
3.771964503e-15
9.272340682e-13
2.709999691e-10
4.904396096e-08
2.710000111e-10
9.272341012e-13
1.358107299e-10
4.904396096e-08
1.153763227e-05
4.904396647e-08
1.358107763e-10
9.272636758e-13
2.710000111e-10
4.904396647e-08
2.710000448e-10
9.272346706e-13
3.771964503e-15
9.272341012e-13
1.358107763e-10
9.272346706e-13
3.784299499e-15
1.023670148e-16
2.471200119e-14
3.55810993e-12
2.47342693e-14
1.022148275e-16
2.471200119e-14
7.099624652e-12
1.257382562e-09
7.105003726e-12
2.475904642e-14
3.55810993e-12
1.257382562e-09
2.865607719e-07
1.257383033e-09
3.56080164e-12
2.47342693e-14
7.105003726e-12
1.257383033e-09
7.105006269e-12
2.475906693e-14
1.022148275e-16
2.475904642e-14
3.56080164e-12
2.475906693e-14
1.027243772e-16
)
;

boundaryField
{
    top
    {
        type            inletOutlet;
        inletValue      uniform 0;
        value           nonuniform List<scalar> 
25
(
1.023670148e-16
2.471200119e-14
3.55810993e-12
2.47342693e-14
1.022148275e-16
2.471200119e-14
7.099624652e-12
1.257382562e-09
7.105003726e-12
2.475904642e-14
3.55810993e-12
1.257382562e-09
2.865607719e-07
1.257383033e-09
3.56080164e-12
2.47342693e-14
7.105003726e-12
1.257383033e-09
7.105006269e-12
2.475906693e-14
1.022148275e-16
2.475904642e-14
3.56080164e-12
2.475906693e-14
1.027243772e-16
)
;
    }
    bottom
    {
        type            fixedValue;
        value           uniform 0;
    }
    walls
    {
        type            zeroGradient;
    }
}


// ************************************************************************* //
