/*--------------------------------*- C++ -*----------------------------------*\
  =========                 |
  \\      /  F ield         | OpenFOAM: The Open Source CFD Toolbox
   \\    /   O peration     | Website:  https://openfoam.org
    \\  /    A nd           | Version:  7
     \\/     M anipulation  |
\*---------------------------------------------------------------------------*/
FoamFile
{
    version     2.0;
    format      ascii;
    class       volScalarField;
    location    "0.001";
    object      p;
}
// * * * * * * * * * * * * * * * * * * * * * * * * * * * * * * * * * * * * * //

dimensions      [1 -1 -2 0 0 0 0];

internalField   nonuniform List<scalar> 
125
(
101322.3018
101322.2996
101322.2984
101322.2996
101322.3018
101322.2996
101322.2967
101322.2947
101322.2967
101322.2996
101322.2984
101322.2947
101322.2912
101322.2947
101322.2984
101322.2996
101322.2967
101322.2947
101322.2967
101322.2996
101322.3018
101322.2996
101322.2984
101322.2996
101322.3018
101322.4411
101322.439
101322.4372
101322.439
101322.4411
101322.439
101322.4353
101322.4306
101322.4353
101322.439
101322.4372
101322.4306
101322.4174
101322.4306
101322.4372
101322.439
101322.4353
101322.4306
101322.4353
101322.439
101322.4411
101322.439
101322.4372
101322.439
101322.4411
101322.8377
101322.8351
101322.8321
101322.8351
101322.8377
101322.8351
101322.829
101322.8167
101322.829
101322.8351
101322.8321
101322.8167
101322.7506
101322.8167
101322.8321
101322.8351
101322.829
101322.8167
101322.829
101322.8351
101322.8377
101322.8351
101322.8321
101322.8351
101322.8377
101323.4937
101323.4922
101323.4905
101323.4922
101323.4937
101323.4922
101323.4891
101323.4847
101323.4891
101323.4922
101323.4905
101323.4847
101323.4716
101323.4847
101323.4905
101323.4922
101323.4891
101323.4847
101323.4891
101323.4922
101323.4937
101323.4922
101323.4905
101323.4922
101323.4937
101324.4095
101324.409
101324.4086
101324.409
101324.4095
101324.409
101324.4082
101324.4073
101324.4082
101324.409
101324.4086
101324.4073
101324.4053
101324.4073
101324.4086
101324.409
101324.4082
101324.4073
101324.4082
101324.409
101324.4095
101324.409
101324.4086
101324.409
101324.4095
)
;

boundaryField
{
    top
    {
        type            totalPressure;
        rho             rho;
        psi             none;
        gamma           1;
        p0              uniform 101325;
        value           uniform 101325;
    }
    bottom
    {
        type            zeroGradient;
    }
    walls
    {
        type            zeroGradient;
    }
}


// ************************************************************************* //
