/*--------------------------------*- C++ -*----------------------------------*\
  =========                 |
  \\      /  F ield         | OpenFOAM: The Open Source CFD Toolbox
   \\    /   O peration     | Website:  https://openfoam.org
    \\  /    A nd           | Version:  7
     \\/     M anipulation  |
\*---------------------------------------------------------------------------*/
FoamFile
{
    version     2.0;
    format      ascii;
    class       surfaceScalarField;
    location    "0.001";
    object      phi;
}
// * * * * * * * * * * * * * * * * * * * * * * * * * * * * * * * * * * * * * //

dimensions      [1 0 -1 0 0 0 0];

internalField   nonuniform List<scalar> 
300
(
8.493714354e-08
8.49497388e-08
0.0004586433771
4.737146053e-08
1.110635117e-07
0.0004587370863
-4.741108173e-08
1.43736067e-07
0.0004587618678
-8.497410331e-08
1.110661216e-07
0.0004587371186
8.495376358e-08
0.0004586434401
1.110508761e-07
4.738619142e-08
0.0004587370804
8.004492091e-08
8.00600537e-08
0.0004588700147
-8.008217867e-08
1.369189389e-07
0.0004589753364
-1.110865671e-07
8.006420282e-08
0.0004588700466
4.739570336e-08
0.0004587371414
1.437237813e-07
-4.740355397e-08
0.0004587618553
1.369038034e-07
-8.007300467e-08
0.0004589753301
-1.369369151e-07
-1.369270546e-07
0.0004593565406
-1.437540842e-07
-8.006398522e-08
0.0004589753604
-4.739196369e-08
0.0004587619136
1.110554466e-07
-8.497599202e-08
0.0004587371045
8.004975305e-08
-1.110871835e-07
0.0004588700363
-8.007384444e-08
-1.437521511e-07
0.0004589753559
-1.110831169e-07
-1.11079546e-07
0.000458870064
-8.495428849e-08
0.0004587371649
8.494438308e-08
0.0004586434266
4.738384973e-08
0.0004587371313
-4.740014514e-08
0.0004587619084
-8.495783721e-08
0.0004587371633
0.0004586434689
8.206986069e-08
8.208545754e-08
0.000448418742
7.27810443e-08
1.476734863e-07
0.0004485353662
-7.284378434e-08
2.611452778e-07
0.0004485833628
-8.2113226e-08
1.476776683e-07
0.0004485353855
8.209128e-08
0.0004484187813
1.476578371e-07
7.280094216e-08
0.0004485353623
1.85828013e-07
1.858488767e-07
0.0004487277758
-1.858866074e-07
5.168243895e-07
0.0004490260254
-1.476999261e-07
1.858556855e-07
0.0004487277939
7.281479153e-08
0.0004485354007
2.611303316e-07
-7.282987635e-08
0.0004485833549
5.168034436e-07
-1.858724561e-07
0.0004490260209
-5.168555997e-07
-5.168406032e-07
0.0004512973571
-2.611654328e-07
-1.858604213e-07
0.0004490260408
-7.280657766e-08
0.0004485833923
1.4766283e-07
-8.211172364e-08
0.0004485353744
1.858354639e-07
-1.476969222e-07
0.0004487277858
-1.858755185e-07
-2.611598502e-07
0.0004490260372
-1.476881564e-07
-1.476812774e-07
0.0004487278065
-8.209729163e-08
0.0004485354091
8.207805102e-08
0.0004484187702
7.279745962e-08
0.0004485353924
-7.28199856e-08
0.0004485833879
-8.210392366e-08
0.0004485354077
0.000448418796
1.016844577e-07
1.016896083e-07
0.0004380753616
1.203449571e-07
2.431091017e-07
0.00043813081
-1.203484743e-07
6.061483866e-07
0.0004380755179
-1.016813997e-07
2.431108221e-07
0.0004381308302
1.016919189e-07
0.0004380754064
2.431038935e-07
1.20352555e-07
0.0004381308067
4.811380916e-07
4.811456367e-07
0.0004381064617
-4.811399612e-07
2.586421698e-06
0.000437801449
-2.431002484e-07
4.811513445e-07
0.0004381064826
1.203608173e-07
0.0004381308496
6.061432782e-07
-1.20342853e-07
0.0004380755109
2.586414165e-06
-4.811352516e-07
0.0004378014447
-2.586410579e-06
-2.586405623e-06
0.0004359334541
-6.061378599e-07
-4.811265715e-07
0.0004378014742
-1.203309439e-07
0.000438075553
2.431047306e-07
-1.016812199e-07
0.0004381308201
4.811438425e-07
-2.430994908e-07
0.0004381064756
-4.811314755e-07
-6.061358779e-07
0.0004378014716
-2.430940484e-07
-2.430917969e-07
0.0004381064915
-1.016829563e-07
0.0004381308411
1.016866098e-07
0.0004380753967
1.203545454e-07
0.0004381308428
-1.203355096e-07
0.0004380755496
-1.016852043e-07
0.0004381308401
0.0004380754169
6.279189879e-08
6.279386611e-08
0.0004276883198
6.506397554e-08
1.261180556e-07
0.0004277379953
-6.504878902e-08
2.506733328e-07
0.0004276908214
-6.276702269e-08
1.261205416e-07
0.0004277379886
6.279467346e-08
0.0004276883058
1.261161491e-07
6.50677312e-08
0.0004277379936
1.753813255e-07
1.753844807e-07
0.0004277408017
-1.753638652e-07
5.30559535e-07
0.0004276033665
-1.260931426e-07
1.753982963e-07
0.0004277407927
6.507461192e-08
0.000427737979
2.506708707e-07
-6.5046176e-08
0.0004276908168
5.30556294e-07
-1.75361754e-07
0.0004276033639
-5.30525365e-07
-5.305230784e-07
0.0004271593391
-2.506545598e-07
-1.753663752e-07
0.0004276033444
-6.505402483e-08
0.0004276907942
1.261176426e-07
-6.276647202e-08
0.0004277379821
1.753951828e-07
-1.260921798e-07
0.0004277407887
-1.753685979e-07
-2.50653414e-07
0.0004276033428
-1.261031906e-07
-1.261020328e-07
0.0004277407674
-6.276942033e-08
0.000427737966
6.279222875e-08
0.0004276882994
6.507163564e-08
0.0004277379745
-6.505622663e-08
0.0004276907919
-6.277061004e-08
0.0004277379652
0.000427688288
1.964457619e-08
1.96448986e-08
1.799908045e-08
3.441268337e-08
-1.798611482e-08
5.731466723e-08
-1.962508955e-08
3.441273355e-08
1.964477114e-08
3.441244045e-08
1.80000046e-08
3.818341954e-08
3.818408301e-08
-3.817053207e-08
8.18963648e-08
-3.439348939e-08
3.818565153e-08
1.799702387e-08
5.731414499e-08
-1.79852444e-08
8.189561163e-08
-3.816980509e-08
-8.18811654e-08
-8.188054101e-08
-5.729787578e-08
-3.817622218e-08
-1.79877615e-08
3.441215535e-08
-1.962466101e-08
3.818489436e-08
-3.439304352e-08
-3.817681771e-08
-5.7297461e-08
-3.439343299e-08
-3.439303953e-08
-1.962548701e-08
1.964410723e-08
1.79962103e-08
-1.798845606e-08
-1.962589513e-08
)
;

boundaryField
{
    top
    {
        type            calculated;
        value           nonuniform List<scalar> 
25
(
0.0004172180205
0.0004172710501
0.0004172353916
0.0004172710288
0.0004172179676
0.000417271051
0.0004172959774
0.0004172179551
0.0004172959568
0.0004172709997
0.0004172353948
0.0004172179569
0.0004170337756
0.000417217934
0.0004172353455
0.0004172710336
0.0004172959599
0.0004172179352
0.0004172959447
0.0004172709843
0.0004172179728
0.0004172710033
0.0004172353474
0.000417270985
0.0004172179245
)
;
    }
    bottom
    {
        type            calculated;
        value           nonuniform List<scalar> 
25
(
-0.0004685949031
-0.000468594893
-0.0004685948874
-0.000468594893
-0.0004685949031
-0.000468594893
-0.0004685948798
-0.0004685948703
-0.0004685948798
-0.000468594893
-0.0004685948874
-0.0004685948703
-0.0004685948541
-0.0004685948703
-0.0004685948874
-0.000468594893
-0.0004685948798
-0.0004685948703
-0.0004685948798
-0.000468594893
-0.0004685949031
-0.000468594893
-0.0004685948874
-0.000468594893
-0.0004685949031
)
;
    }
    walls
    {
        type            calculated;
        value           uniform 0;
    }
}


// ************************************************************************* //
