/*--------------------------------*- C++ -*----------------------------------*\
  =========                 |
  \\      /  F ield         | OpenFOAM: The Open Source CFD Toolbox
   \\    /   O peration     | Website:  https://openfoam.org
    \\  /    A nd           | Version:  7
     \\/     M anipulation  |
\*---------------------------------------------------------------------------*/
FoamFile
{
    version     2.0;
    format      ascii;
    class       surfaceScalarField;
    location    "0.001";
    object      phi;
}
// * * * * * * * * * * * * * * * * * * * * * * * * * * * * * * * * * * * * * //

dimensions      [1 0 -1 0 0 0 0];

internalField   nonuniform List<scalar> 
300
(
8.49346895e-08
8.494728432e-08
0.0004586433816
4.737019621e-08
1.110595091e-07
0.0004587370886
-4.740981874e-08
1.437313815e-07
0.0004587618695
-8.497164794e-08
1.110621191e-07
0.0004587371209
8.495130865e-08
0.0004586434446
1.11046873e-07
4.738492576e-08
0.0004587370827
8.004294871e-08
8.005808239e-08
0.0004588700102
-8.00802078e-08
1.369202955e-07
0.0004589753271
-1.11082564e-07
8.006223196e-08
0.0004588700421
4.73944386e-08
0.0004587371438
1.437190971e-07
-4.740229009e-08
0.000458761857
1.369051601e-07
-8.007103558e-08
0.0004589753208
-1.369382727e-07
-1.369284139e-07
0.0004593567157
-1.437494004e-07
-8.006201746e-08
0.0004589753511
-4.739070159e-08
0.0004587619153
1.110514423e-07
-8.497353576e-08
0.0004587371069
8.004778174e-08
-1.1108318e-07
0.0004588700318
-8.007187491e-08
-1.437474659e-07
0.0004589753466
-1.110791144e-07
-1.110755425e-07
0.0004588700594
-8.495183312e-08
0.0004587371673
8.494192683e-08
0.0004586434311
4.738258497e-08
0.0004587371337
-4.73988826e-08
0.0004587619101
-8.495538273e-08
0.0004587371657
0.0004586434734
8.206527058e-08
8.208086877e-08
0.0004484187552
7.277911429e-08
1.476626239e-07
0.0004485353764
-7.284185299e-08
2.611336396e-07
0.000448583373
-8.2108635e-08
1.476668037e-07
0.0004485353956
8.208668945e-08
0.0004484187945
1.476469733e-07
7.279901215e-08
0.0004485353724
1.858236978e-07
1.85844562e-07
0.0004487277599
-1.858822931e-07
5.177480018e-07
0.0004490254113
-1.476890614e-07
1.858513685e-07
0.000448727778
7.281286152e-08
0.0004485354108
2.611186924e-07
-7.282794723e-08
0.0004485833651
5.177270554e-07
-1.858681431e-07
0.0004490254067
-5.177792128e-07
-5.177642168e-07
0.0004513615873
-2.611537915e-07
-1.858561065e-07
0.0004490254267
-7.280464809e-08
0.0004485834025
1.476519649e-07
-8.21071322e-08
0.0004485353846
1.858311482e-07
-1.476860572e-07
0.0004487277699
-1.858712029e-07
-2.611482088e-07
0.0004490254231
-1.4767729e-07
-1.476704132e-07
0.0004487277906
-8.209270197e-08
0.0004485354192
8.207345914e-08
0.0004484187834
7.279553049e-08
0.0004485354025
-7.281805736e-08
0.0004485833981
-8.209933133e-08
0.0004485354178
0.0004484188093
1.016767954e-07
1.016819455e-07
0.0004380753898
1.203450437e-07
2.43077952e-07
0.0004381308442
-1.2034856e-07
6.062449196e-07
0.0004380756014
-1.016737352e-07
2.430796702e-07
0.0004381308645
1.016842561e-07
0.0004380754346
2.430727442e-07
1.203526425e-07
0.0004381308409
4.81261861e-07
4.812694057e-07
0.000438106475
-4.812637315e-07
2.647418662e-06
0.0004378005453
-2.430690951e-07
4.812751198e-07
0.000438106496
1.203609021e-07
0.0004381308839
6.062398112e-07
-1.203429392e-07
0.0004380755944
2.647411129e-06
-4.81259022e-07
0.0004378005409
-2.647407537e-06
-2.64740258e-06
0.0004358776199
-6.062343982e-07
-4.812503449e-07
0.0004378005708
-1.2033103e-07
0.0004380756365
2.430735777e-07
-1.016735567e-07
0.0004381308544
4.812676191e-07
-2.430683379e-07
0.000438106489
-4.812552499e-07
-6.062324154e-07
0.0004378005682
-2.430628978e-07
-2.430606476e-07
0.0004381065048
-1.016752931e-07
0.0004381308754
1.016789466e-07
0.0004380754249
1.20354632e-07
0.0004381308771
-1.203355975e-07
0.0004380756331
-1.016775397e-07
0.0004381308743
0.0004380754451
6.279028097e-08
6.279224785e-08
0.000427688351
6.511495032e-08
1.260693896e-07
0.0004277380254
-6.509976602e-08
2.50881294e-07
0.0004276908061
-6.27654031e-08
1.260718756e-07
0.0004277380187
6.279305476e-08
0.000427688337
1.260674831e-07
6.511870643e-08
0.0004277380238
1.753157526e-07
1.753189065e-07
0.0004277408627
-1.752982928e-07
5.321995706e-07
0.0004276034435
-1.260444775e-07
1.753330552e-07
0.0004277408537
6.512558937e-08
0.0004277380092
2.50878831e-07
-6.509715167e-08
0.0004276908015
5.321963301e-07
-1.752961807e-07
0.0004276034408
-5.321650689e-07
-5.321627814e-07
0.0004271571111
-2.508628527e-07
-1.753011345e-07
0.0004276034211
-6.510500183e-08
0.0004276907789
1.260689766e-07
-6.276485331e-08
0.0004277380123
1.753299417e-07
-1.260435152e-07
0.0004277408497
-1.753033581e-07
-2.508617065e-07
0.0004276034195
-1.260545259e-07
-1.260533677e-07
0.0004277408284
-6.276780118e-08
0.0004277379962
6.279060916e-08
0.0004276883306
6.512261308e-08
0.0004277380046
-6.510720452e-08
0.0004276907765
-6.276899134e-08
0.0004277379954
0.0004276883192
1.964222207e-08
1.964254404e-08
1.80046249e-08
3.439363727e-08
-1.799165839e-08
5.72797445e-08
-1.96227341e-08
3.439368612e-08
1.964241525e-08
3.439339391e-08
1.800554861e-08
3.815620575e-08
3.815687055e-08
-3.814332095e-08
8.182328504e-08
-3.437444152e-08
3.815845107e-08
1.800256699e-08
5.72792227e-08
-1.799078708e-08
8.182253097e-08
-3.814259308e-08
-8.180807232e-08
-8.180744837e-08
-5.726296592e-08
-3.814902039e-08
-1.799330418e-08
3.439310836e-08
-1.962230645e-08
3.815769212e-08
-3.437399698e-08
-3.814961591e-08
-5.726254937e-08
-3.437438822e-08
-3.437399299e-08
-1.962313156e-08
1.964175089e-08
1.800175387e-08
-1.799399829e-08
-1.962354057e-08
)
;

boundaryField
{
    top
    {
        type            calculated;
        value           nonuniform List<scalar> 
25
(
0.0004172180563
0.0004172710913
0.0004172354224
0.0004172710701
0.0004172180035
0.0004172710922
0.0004172960549
0.0004172180826
0.0004172960343
0.0004172710409
0.0004172354256
0.0004172180845
0.0004170333041
0.0004172180615
0.0004172353763
0.0004172710748
0.0004172960374
0.0004172180627
0.0004172960222
0.0004172710255
0.0004172180086
0.0004172710445
0.0004172353782
0.0004172710262
0.0004172179603
)
;
    }
    bottom
    {
        type            calculated;
        value           nonuniform List<scalar> 
25
(
-0.0004685949031
-0.000468594893
-0.0004685948874
-0.000468594893
-0.0004685949031
-0.000468594893
-0.0004685948798
-0.0004685948704
-0.0004685948798
-0.000468594893
-0.0004685948874
-0.0004685948704
-0.0004685948541
-0.0004685948704
-0.0004685948874
-0.000468594893
-0.0004685948798
-0.0004685948704
-0.0004685948798
-0.000468594893
-0.0004685949031
-0.000468594893
-0.0004685948874
-0.000468594893
-0.0004685949031
)
;
    }
    walls
    {
        type            calculated;
        value           uniform 0;
    }
}


// ************************************************************************* //
