/*--------------------------------*- C++ -*----------------------------------*\
  =========                 |
  \\      /  F ield         | OpenFOAM: The Open Source CFD Toolbox
   \\    /   O peration     | Website:  https://openfoam.org
    \\  /    A nd           | Version:  7
     \\/     M anipulation  |
\*---------------------------------------------------------------------------*/
FoamFile
{
    version     2.0;
    format      ascii;
    class       volScalarField;
    location    "0.001";
    object      qr;
}
// * * * * * * * * * * * * * * * * * * * * * * * * * * * * * * * * * * * * * //

dimensions      [1 0 -3 0 0 0 0];

internalField   uniform 0;

boundaryField
{
    top
    {
        type            calculated;
        value           uniform -0;
    }
    bottom
    {
        type            calculated;
        value           uniform -0;
    }
    walls
    {
        type            calculated;
        value           nonuniform List<scalar> 
100
(
-304.9796789
-307.2882016
-309.1872376
-307.3041602
-305.0128459
-312.7163189
-316.4483889
-320.0786418
-316.4614255
-312.7481802
-316.4382473
-321.8942288
-328.4387393
-321.9080027
-316.4663787
-312.7214996
-316.4498067
-320.076735
-316.4588086
-312.7470417
-304.989736
-307.2944964
-309.1813539
-307.2970639
-305.0011115
-304.989736
-307.2944964
-309.1813539
-307.2970639
-305.0011115
-312.7137502
-316.4495215
-320.0847904
-316.4627725
-312.745059
-316.4300734
-321.8941179
-328.4463636
-321.9116512
-316.4611851
-312.7197211
-316.4517434
-320.0845448
-316.4605556
-312.7431637
-304.9788017
-307.2905466
-309.1818426
-307.2883221
-305.0022797
-304.989736
-312.7137502
-316.4300734
-312.7197211
-304.9788017
-307.2944964
-316.4495215
-321.8941179
-316.4517434
-307.2905466
-309.1813539
-320.0847904
-328.4463636
-320.0845448
-309.1818426
-307.2970639
-316.4627725
-321.9116512
-316.4605556
-307.2883221
-305.0011115
-312.745059
-316.4611851
-312.7431637
-305.0022797
-304.9796789
-312.7163189
-316.4382473
-312.7214996
-304.989736
-307.2882016
-316.4483889
-321.8942288
-316.4498067
-307.2944964
-309.1872376
-320.0786418
-328.4387393
-320.076735
-309.1813539
-307.3041602
-316.4614255
-321.9080027
-316.4588086
-307.2970639
-305.0128459
-312.7481802
-316.4663787
-312.7470417
-305.0011115
)
;
    }
}


// ************************************************************************* //
