/*--------------------------------*- C++ -*----------------------------------*\
  =========                 |
  \\      /  F ield         | OpenFOAM: The Open Source CFD Toolbox
   \\    /   O peration     | Website:  https://openfoam.org
    \\  /    A nd           | Version:  7
     \\/     M anipulation  |
\*---------------------------------------------------------------------------*/
FoamFile
{
    version     2.0;
    format      ascii;
    class       volScalarField;
    location    "0.001";
    object      qr;
}
// * * * * * * * * * * * * * * * * * * * * * * * * * * * * * * * * * * * * * //

dimensions      [1 0 -3 0 0 0 0];

internalField   uniform 0;

boundaryField
{
    top
    {
        type            calculated;
        value           uniform -0;
    }
    bottom
    {
        type            calculated;
        value           uniform -0;
    }
    walls
    {
        type            calculated;
        value           nonuniform List<scalar> 
100
(
-304.9797963
-307.2883197
-309.187356
-307.3042771
-305.0129614
-312.7164394
-316.4485108
-320.0787647
-316.4615458
-312.7482985
-316.4383694
-321.8943531
-328.4388658
-321.908125
-316.4664982
-312.7216201
-316.4499286
-320.0768579
-316.4589289
-312.74716
-304.9898533
-307.2946144
-309.1814723
-307.2971808
-305.001227
-304.9898533
-307.2946144
-309.1814723
-307.2971808
-305.001227
-312.7138707
-316.4496434
-320.0849133
-316.4628928
-312.7451773
-316.4301955
-321.8942421
-328.4464901
-321.9117735
-316.4613047
-312.7198415
-316.4518653
-320.0846677
-316.460676
-312.743282
-304.978919
-307.2906647
-309.181961
-307.288439
-305.0023953
-304.9898533
-312.7138707
-316.4301955
-312.7198415
-304.978919
-307.2946144
-316.4496434
-321.8942421
-316.4518653
-307.2906647
-309.1814723
-320.0849133
-328.4464901
-320.0846677
-309.181961
-307.2971808
-316.4628928
-321.9117735
-316.460676
-307.288439
-305.001227
-312.7451773
-316.4613047
-312.743282
-305.0023953
-304.9797963
-312.7164394
-316.4383694
-312.7216201
-304.9898533
-307.2883197
-316.4485108
-321.8943531
-316.4499286
-307.2946144
-309.187356
-320.0787647
-328.4388658
-320.0768579
-309.1814723
-307.3042771
-316.4615458
-321.908125
-316.4589289
-307.2971808
-305.0129614
-312.7482985
-316.4664982
-312.74716
-305.001227
)
;
    }
}


// ************************************************************************* //
