/*--------------------------------*- C++ -*----------------------------------*\
  =========                 |
  \\      /  F ield         | OpenFOAM: The Open Source CFD Toolbox
   \\    /   O peration     | Website:  https://openfoam.org
    \\  /    A nd           | Version:  7
     \\/     M anipulation  |
\*---------------------------------------------------------------------------*/
FoamFile
{
    version     2.0;
    format      ascii;
    class       volScalarField;
    location    "0.001";
    object      rho;
}
// * * * * * * * * * * * * * * * * * * * * * * * * * * * * * * * * * * * * * //

dimensions      [1 -3 0 0 0 0 0];

internalField   nonuniform List<scalar> 
125
(
0.2930324489
0.2930324909
0.2930324874
0.2930324909
0.2930324489
0.2930324909
0.2930325311
0.2930325252
0.2930325311
0.2930324909
0.2930324874
0.2930325252
0.2930325189
0.2930325252
0.2930324874
0.2930324909
0.2930325311
0.2930325252
0.2930325311
0.2930324909
0.2930324489
0.2930324909
0.2930324874
0.2930324909
0.2930324489
0.2930368066
0.2930368513
0.293036846
0.2930368513
0.2930368071
0.2930368513
0.2930368913
0.2930368854
0.2930368913
0.2930368519
0.293036846
0.2930368854
0.2930383124
0.2930368854
0.2930368466
0.2930368513
0.2930368913
0.2930368854
0.2930368913
0.2930368519
0.2930368071
0.2930368519
0.2930368466
0.2930368519
0.2930368077
0.2930380504
0.2930380938
0.2930380888
0.2930380938
0.293038051
0.2930380938
0.2930381346
0.2930395644
0.2930381346
0.2930380944
0.2930380888
0.2930395644
0.2934035796
0.2930395644
0.2930380894
0.2930380938
0.2930381346
0.2930395644
0.2930381346
0.2930380944
0.293038051
0.2930380944
0.2930380894
0.2930380944
0.2930380516
0.29303995
0.2930399963
0.2930399917
0.2930399963
0.2930399506
0.2930399963
0.2930400385
0.2930400692
0.2930400385
0.2930399969
0.2930399917
0.2930400692
0.2930503427
0.2930400705
0.2930399923
0.2930399963
0.2930400385
0.2930400705
0.2930400385
0.2930399969
0.2930399506
0.2930399969
0.2930399923
0.2930399969
0.2930399512
0.2930425986
0.293042648
0.2930426468
0.293042648
0.2930425992
0.293042648
0.2930426965
0.2930426949
0.2930426965
0.2930426486
0.2930426468
0.2930426949
0.2930429452
0.293042695
0.2930426474
0.293042648
0.2930426965
0.293042695
0.2930426965
0.2930426486
0.2930425992
0.2930426486
0.2930426474
0.2930426486
0.2930425998
)
;

boundaryField
{
    top
    {
        type            calculated;
        value           nonuniform List<scalar> 
25
(
0.2930443064
0.2930443572
0.2930443572
0.2930443572
0.293044307
0.2930443572
0.2930444081
0.2930444092
0.2930444081
0.2930443578
0.2930443572
0.2930444092
0.2930446651
0.2930444092
0.2930443578
0.2930443572
0.2930444081
0.2930444092
0.2930444081
0.2930443578
0.293044307
0.2930443578
0.2930443578
0.2930443578
0.2930443076
)
;
    }
    bottom
    {
        type            calculated;
        value           nonuniform List<scalar> 
25
(
0.2928718144
0.2928718081
0.2928718046
0.2928718081
0.2928718144
0.2928718081
0.2928717999
0.292871794
0.2928717999
0.2928718081
0.2928718046
0.292871794
0.2928717838
0.292871794
0.2928718046
0.2928718081
0.2928717999
0.292871794
0.2928717999
0.2928718081
0.2928718144
0.2928718081
0.2928718046
0.2928718081
0.2928718144
)
;
    }
    walls
    {
        type            calculated;
        value           nonuniform List<scalar> 
100
(
0.2928718144
0.2928722172
0.2928733636
0.2928752598
0.2928779068
0.2928718081
0.2928722112
0.2928733562
0.2928752553
0.2928779054
0.2928718046
0.2928722058
0.2928733466
0.2928752505
0.2928779042
0.2928718081
0.2928722112
0.2928733562
0.2928752553
0.2928779054
0.2928718144
0.2928722172
0.2928733636
0.2928752598
0.2928779068
0.2928718144
0.2928722172
0.2928733636
0.2928752598
0.2928779068
0.2928718081
0.2928722112
0.2928733562
0.2928752553
0.2928779054
0.2928718046
0.2928722058
0.2928733466
0.2928752505
0.2928779042
0.2928718081
0.2928722112
0.2928733562
0.2928752553
0.2928779054
0.2928718144
0.2928722172
0.2928733636
0.2928752598
0.2928779068
0.2928718144
0.2928718081
0.2928718046
0.2928718081
0.2928718144
0.2928722172
0.2928722112
0.2928722058
0.2928722112
0.2928722172
0.2928733636
0.2928733562
0.2928733466
0.2928733562
0.2928733636
0.2928752598
0.2928752553
0.2928752505
0.2928752553
0.2928752598
0.2928779068
0.2928779054
0.2928779042
0.2928779054
0.2928779068
0.2928718144
0.2928718081
0.2928718046
0.2928718081
0.2928718144
0.2928722172
0.2928722112
0.2928722058
0.2928722112
0.2928722172
0.2928733636
0.2928733562
0.2928733466
0.2928733562
0.2928733636
0.2928752598
0.2928752553
0.2928752505
0.2928752553
0.2928752598
0.2928779068
0.2928779054
0.2928779042
0.2928779054
0.2928779068
)
;
    }
}


// ************************************************************************* //
