/*--------------------------------*- C++ -*----------------------------------*\
  =========                 |
  \\      /  F ield         | OpenFOAM: The Open Source CFD Toolbox
   \\    /   O peration     | Website:  https://openfoam.org
    \\  /    A nd           | Version:  7
     \\/     M anipulation  |
\*---------------------------------------------------------------------------*/
FoamFile
{
    version     2.0;
    format      ascii;
    class       volScalarField;
    location    "0.001";
    object      T;
}
// * * * * * * * * * * * * * * * * * * * * * * * * * * * * * * * * * * * * * //

dimensions      [0 0 0 1 0 0 0];

internalField   nonuniform List<scalar> 
125
(
1199.342184
1199.341986
1199.341986
1199.341986
1199.342184
1199.341986
1199.341788
1199.341788
1199.341788
1199.341986
1199.341986
1199.341788
1199.341788
1199.341788
1199.341986
1199.341986
1199.341788
1199.341788
1199.341788
1199.341986
1199.342184
1199.341986
1199.341986
1199.341986
1199.342184
1199.325998
1199.325791
1199.325791
1199.325791
1199.325996
1199.325791
1199.325583
1199.325583
1199.325583
1199.325788
1199.325791
1199.325583
1199.325322
1199.325583
1199.325788
1199.325791
1199.325583
1199.325583
1199.325583
1199.325788
1199.325996
1199.325788
1199.325788
1199.325788
1199.325994
1199.325602
1199.325395
1199.325394
1199.325395
1199.3256
1199.325395
1199.325186
1199.324926
1199.325186
1199.325392
1199.325394
1199.324926
1197.495816
1199.324926
1199.325392
1199.325395
1199.325186
1199.324926
1199.325186
1199.325392
1199.3256
1199.325392
1199.325392
1199.325392
1199.325597
1199.325593
1199.325385
1199.325385
1199.325385
1199.32559
1199.325385
1199.325177
1199.325169
1199.325177
1199.325382
1199.325385
1199.325169
1199.2804
1199.325164
1199.325382
1199.325385
1199.325177
1199.325164
1199.325177
1199.325382
1199.32559
1199.325382
1199.325382
1199.325382
1199.325588
1199.325593
1199.325385
1199.325385
1199.325385
1199.32559
1199.325385
1199.325176
1199.325176
1199.325176
1199.325382
1199.325385
1199.325176
1199.324081
1199.325176
1199.325382
1199.325385
1199.325176
1199.325176
1199.325176
1199.325382
1199.32559
1199.325382
1199.325382
1199.325382
1199.325588
)
;

boundaryField
{
    top
    {
        type            zeroGradient;
    }
    bottom
    {
        type            fixedValue;
        value           uniform 1200;
    }
    walls
    {
        type            fixedValue;
        value           uniform 1200;
    }
}


// ************************************************************************* //
