/*--------------------------------*- C++ -*----------------------------------*\
  =========                 |
  \\      /  F ield         | OpenFOAM: The Open Source CFD Toolbox
   \\    /   O peration     | Website:  https://openfoam.org
    \\  /    A nd           | Version:  7
     \\/     M anipulation  |
\*---------------------------------------------------------------------------*/
FoamFile
{
    version     2.0;
    format      ascii;
    class       volScalarField;
    location    "0.001";
    object      tar;
}
// * * * * * * * * * * * * * * * * * * * * * * * * * * * * * * * * * * * * * //

dimensions      [0 0 0 0 0 0 0];

internalField   nonuniform List<scalar> 
125
(
1.355436339e-28
2.602127118e-26
2.862758232e-24
2.602120932e-26
1.309912459e-28
2.602127118e-26
5.708049053e-24
7.317342026e-22
5.708042928e-24
2.56819539e-26
2.862758232e-24
7.317342026e-22
1.1224187e-19
7.317338864e-22
2.863452077e-24
2.602120932e-26
5.708042928e-24
7.317338864e-22
5.709441442e-24
2.56819596e-26
1.309912459e-28
2.56819539e-26
2.863452077e-24
2.56819596e-26
1.309932193e-28
2.603040367e-26
5.709944034e-24
7.319628637e-22
5.709937875e-24
2.569090271e-26
5.709944034e-24
1.46009606e-21
2.240587889e-19
1.460095873e-21
5.711326609e-24
7.319628637e-22
2.240587889e-19
4.2740846e-17
2.240587881e-19
7.319625634e-22
5.709937875e-24
1.460095873e-21
2.240587881e-19
1.46009591e-21
5.709929642e-24
2.569090271e-26
5.711326609e-24
7.319625634e-22
5.709929642e-24
2.603022918e-26
2.864044486e-24
7.320362171e-22
1.122840017e-19
7.320358942e-22
2.864730169e-24
7.320362171e-22
2.240774422e-19
4.274368436e-17
2.240774408e-19
7.320359309e-22
1.122840017e-19
4.274368436e-17
1.073078698e-14
4.274368436e-17
1.122840017e-19
7.320358942e-22
2.240774408e-19
4.274368436e-17
2.240774422e-19
7.320362168e-22
2.864730169e-24
7.320359309e-22
1.122840017e-19
7.320362168e-22
2.864044482e-24
9.980904684e-26
2.4455373e-23
3.581945671e-21
2.445615389e-23
9.948383265e-26
2.4455373e-23
7.147499812e-21
1.293511962e-18
7.14750092e-21
2.445537387e-23
3.581945671e-21
1.293511962e-18
3.042997561e-16
1.293512107e-18
3.581946896e-21
2.445615389e-23
7.14750092e-21
1.293512107e-18
7.147501808e-21
2.445538889e-23
9.948383265e-26
2.445537387e-23
3.581946896e-21
2.445538889e-23
9.980916253e-26
2.699883035e-27
6.5176769e-25
9.384351645e-23
6.523550011e-25
2.695869165e-27
6.5176769e-25
1.872493419e-22
3.3162888e-20
1.873912125e-22
6.530084865e-25
9.384351645e-23
3.3162888e-20
7.557908844e-18
3.316290043e-20
9.391450905e-23
6.523550011e-25
1.873912125e-22
3.316290043e-20
1.873912796e-22
6.530090274e-25
2.695869165e-27
6.530084865e-25
9.391450905e-23
6.530090274e-25
2.709308305e-27
)
;

boundaryField
{
    top
    {
        type            inletOutlet;
        inletValue      uniform 0;
        value           nonuniform List<scalar> 
25
(
2.699883035e-27
6.5176769e-25
9.384351645e-23
6.523550011e-25
2.695869165e-27
6.5176769e-25
1.872493419e-22
3.3162888e-20
1.873912125e-22
6.530084865e-25
9.384351645e-23
3.3162888e-20
7.557908844e-18
3.316290043e-20
9.391450905e-23
6.523550011e-25
1.873912125e-22
3.316290043e-20
1.873912796e-22
6.530090274e-25
2.695869165e-27
6.530084865e-25
9.391450905e-23
6.530090274e-25
2.709308305e-27
)
;
    }
    bottom
    {
        type            fixedValue;
        value           uniform 0;
    }
    walls
    {
        type            zeroGradient;
    }
}


// ************************************************************************* //
