/*--------------------------------*- C++ -*----------------------------------*\
  =========                 |
  \\      /  F ield         | OpenFOAM: The Open Source CFD Toolbox
   \\    /   O peration     | Website:  https://openfoam.org
    \\  /    A nd           | Version:  7
     \\/     M anipulation  |
\*---------------------------------------------------------------------------*/
FoamFile
{
    version     2.0;
    format      ascii;
    class       volScalarField;
    location    "0.001";
    object      tar;
}
// * * * * * * * * * * * * * * * * * * * * * * * * * * * * * * * * * * * * * //

dimensions      [0 0 0 0 0 0 0];

internalField   nonuniform List<scalar> 
125
(
1.364105598e-36
4.308421045e-33
8.166708238e-30
4.308368411e-33
8.184872695e-37
4.308421045e-33
1.633054298e-29
3.869504427e-26
1.633042483e-29
3.015980374e-33
8.166708238e-30
3.869504427e-26
1.222501328e-22
3.869490717e-26
6.805685167e-30
4.308368411e-33
1.633042483e-29
3.869490717e-26
1.360878485e-29
3.015965226e-33
8.184872695e-37
3.015980374e-33
6.805685167e-30
3.015965226e-33
8.185064531e-37
4.310356238e-33
1.633660261e-29
3.87064309e-26
1.633634786e-29
3.017232833e-33
1.633660261e-29
7.74019669e-26
2.445279414e-22
7.740136206e-26
1.361381459e-29
3.87064309e-26
2.445279414e-22
1.158770279e-18
2.445273018e-22
3.870612758e-26
1.633634786e-29
7.740136206e-26
2.445273018e-22
7.740136208e-26
1.63363477e-29
3.017232833e-33
1.361381459e-29
3.870612758e-26
1.63363477e-29
4.310244339e-33
8.170053924e-30
3.870742647e-26
1.222787635e-22
3.870682472e-26
6.808214631e-30
3.870742647e-26
2.445317148e-22
1.15877922e-18
2.445304463e-22
3.870682449e-26
1.222787635e-22
1.15877922e-18
1.098242973e-14
1.15877922e-18
1.222787635e-22
3.870682472e-26
2.445304463e-22
1.15877922e-18
2.445317148e-22
3.870742647e-26
6.808214631e-30
3.870682449e-26
1.222787635e-22
3.870742647e-26
8.170053924e-30
1.000048674e-30
3.790305439e-27
8.980467845e-24
3.158565652e-27
7.000378383e-31
3.790305439e-27
1.795840819e-23
5.673441627e-20
1.79584082e-23
3.790305402e-27
8.980467845e-24
5.673441627e-20
2.688540497e-16
5.673456468e-20
8.980538167e-24
3.158565652e-27
1.79584082e-23
5.673456468e-20
1.795854854e-23
3.790364552e-27
7.000378383e-31
3.790305402e-27
8.980538167e-24
3.790364552e-27
1.000074613e-30
4.408101523e-32
1.624200481e-28
3.664845086e-25
1.624175997e-28
4.408101412e-32
1.624200481e-28
7.328452366e-25
2.083597009e-21
8.794022524e-25
2.32024101e-28
3.664845086e-25
2.083597009e-21
6.582327017e-18
2.083607979e-21
4.397828185e-25
1.624175997e-28
8.794022524e-25
2.083607979e-21
8.794108865e-25
2.320277379e-28
4.408101412e-32
2.32024101e-28
4.397828185e-25
2.320277379e-28
7.346835498e-32
)
;

boundaryField
{
    top
    {
        type            inletOutlet;
        inletValue      uniform 0;
        value           nonuniform List<scalar> 
25
(
4.408101523e-32
1.624200481e-28
3.664845086e-25
1.624175997e-28
4.408101412e-32
1.624200481e-28
7.328452366e-25
2.083597009e-21
8.794022524e-25
2.32024101e-28
3.664845086e-25
2.083597009e-21
6.582327017e-18
2.083607979e-21
4.397828185e-25
1.624175997e-28
8.794022524e-25
2.083607979e-21
8.794108865e-25
2.320277379e-28
4.408101412e-32
2.32024101e-28
4.397828185e-25
2.320277379e-28
7.346835498e-32
)
;
    }
    bottom
    {
        type            fixedValue;
        value           uniform 0;
    }
    walls
    {
        type            zeroGradient;
    }
}


// ************************************************************************* //
