/*--------------------------------*- C++ -*----------------------------------*\
  =========                 |
  \\      /  F ield         | OpenFOAM: The Open Source CFD Toolbox
   \\    /   O peration     | Website:  https://openfoam.org
    \\  /    A nd           | Version:  7
     \\/     M anipulation  |
\*---------------------------------------------------------------------------*/
FoamFile
{
    version     2.0;
    format      ascii;
    class       volVectorField;
    location    "0.001";
    object      U;
}
// * * * * * * * * * * * * * * * * * * * * * * * * * * * * * * * * * * * * * //

dimensions      [0 1 -1 0 0 0 0];

internalField   nonuniform List<vector> 
125
(
(9.059044233e-05 9.060392997e-05 0.9842134642)
(0.0001411183739 0.0001184594963 0.9844166851)
(-4.232527957e-08 0.0001533048056 0.9844429699)
(-0.0001412001211 0.000118462286 0.9844167186)
(-9.063006372e-05 9.060823623e-05 0.9842135297)
(0.0001184459577 0.0001411475446 0.9844166789)
(0.0002038297297 0.0002038593905 0.9846615236)
(-3.981657648e-08 0.0002993602879 0.984773167)
(-0.0002039076481 0.0002038666012 0.9846615566)
(-0.0001184842519 0.0001411619699 0.9844167424)
(0.000153291646 -1.855674628e-08 0.9844429568)
(0.0002993310007 -1.385356719e-08 0.9847731603)
(-3.538366561e-08 -8.685851225e-09 0.9851766316)
(-0.0002993987474 1.958037882e-10 0.9847731915)
(-0.0001533241813 3.98431881e-09 0.9844430172)
(0.0001184508414 -0.0001411941065 0.9844167039)
(0.0002038397678 -0.0002038985228 0.984661546)
(-2.576718189e-08 -0.0002993861644 0.984773187)
(-0.0002038950601 -0.0002038807295 0.9846615741)
(-0.0001184805302 -0.0001411585798 0.9844167653)
(9.05981889e-05 -9.063208069e-05 0.9842135159)
(0.0001411393017 -0.00011848491 0.9844167321)
(-1.741060943e-08 -0.000153322111 0.9844430119)
(-0.0001411710954 -0.0001184767065 0.9844167637)
(-9.061269558e-05 -9.06088919e-05 0.9842135588)
(8.832997377e-05 8.834876737e-05 0.9673186481)
(0.0001663344148 0.0001584277775 0.9675440643)
(-7.067903378e-08 0.0002794840077 0.9676215555)
(-0.0001664594705 0.000158432326 0.9675441193)
(-8.838422662e-05 8.835469271e-05 0.9673187547)
(0.0001584090086 0.0001663765802 0.9675440539)
(0.0003574864717 0.0003575294862 0.9678919285)
(-6.600677522e-08 0.0008325667946 0.9683203795)
(-0.0003576053784 0.0003575409376 0.9678919821)
(-0.000158461785 0.0001663979016 0.9675441576)
(0.0002794661386 -3.191176017e-08 0.967621534)
(0.0008325246799 -2.582045208e-08 0.9683203681)
(-5.91082329e-08 -1.812610503e-08 0.9709344376)
(-0.0008326282164 -4.864612831e-09 0.968320422)
(-0.0002795104552 7.583908526e-09 0.9676216337)
(0.0001584150088 -0.0001664441267 0.9675440932)
(0.000357500178 -0.0003575876987 0.9678919628)
(-4.505090526e-08 -0.0008326062905 0.9683204135)
(-0.0003575796022 -0.0003575557522 0.9678920146)
(-0.0001584492633 -0.0001663992362 0.9675441942)
(8.833913921e-05 -8.838430145e-05 0.967318729)
(0.0001663623384 -0.0001584600764 0.9675441382)
(-2.726550749e-08 -0.0002795052995 0.9676216235)
(-0.0001664211822 -0.0001584421879 0.967544191)
(-8.837067037e-05 -8.836359071e-05 0.9673188004)
(0.000109054018 0.000109059858 0.9454028847)
(0.0002383156935 0.0002599825371 0.9455866437)
(-4.790758423e-09 0.0006466573198 0.945579707)
(-0.000238318742 0.0002599843754 0.945586685)
(-0.0001090521737 0.0001090620784 0.9454029703)
(0.000259976718 0.0002383300053 0.9455866358)
(0.0007759409137 0.0007759554423 0.9457673932)
(-2.848410715e-09 0.00341199854 0.9457616738)
(-0.0007759415361 0.0007759632213 0.9457674338)
(-0.0002599743937 0.0002383402286 0.9455867187)
(0.0006466517627 1.010006922e-08 0.9455796909)
(0.003411984277 1.086972737e-08 0.9457616641)
(3.083007246e-09 1.709544007e-08 0.9454336745)
(-0.003411976913 2.571049756e-08 0.9457617155)
(-0.0006466473934 3.430318348e-08 0.9455797724)
(0.0002599774216 -0.000238312466 0.9455866621)
(0.0007759478593 -0.0007759357592 0.9457674173)
(1.199238689e-08 -0.003411969417 0.9457617086)
(-0.0007759243121 -0.0007759165094 0.9457674572)
(-0.0002599657961 -0.000238300628 0.9455867213)
(0.0001090560176 -0.0001090523386 0.9454029478)
(0.0002383271597 -0.0002599736423 0.9455867022)
(2.227549133e-08 -0.0006466452285 0.9455797638)
(-0.0002383081439 -0.0002599633289 0.9455867186)
(-0.00010905921 -0.0001090567354 0.9454029954)
(6.751398738e-05 6.751611663e-05 0.9232606596)
(0.0001386150871 0.0001345334636 0.923372805)
(1.485538275e-08 0.0002583646555 0.9232636483)
(-0.0001385736755 0.000134535614 0.9233728225)
(-6.748734354e-05 6.751656071e-05 0.9232606988)
(0.0001345313516 0.0001386217146 0.9233727994)
(0.0003294793504 0.000329485251 0.9233499001)
(1.710098283e-08 0.000870946018 0.9228773818)
(-0.0003294373053 0.0003295019869 0.9233499156)
(-0.0001345063151 0.0001386296704 0.9233728355)
(0.0002583618419 2.207962346e-08 0.9232636355)
(0.0008709394215 2.30205117e-08 0.9228773738)
(3.169046413e-08 3.785904958e-08 0.9201980939)
(-0.0008708898781 3.408163473e-08 0.9228773847)
(-0.000258343897 2.308724721e-08 0.9232636628)
(0.0001345322291 -0.0001385702938 0.9233728039)
(0.0003294950657 -0.000329433963 0.9233499033)
(2.815912775e-08 -0.0008708860957 0.9228773801)
(-0.0003294520838 -0.0003294483473 0.9233499009)
(-0.0001345173608 -0.0001385816232 0.9233728089)
(6.75137031e-05 -6.748669751e-05 0.9232606812)
(0.0001386234588 -0.0001345051255 0.9233728232)
(1.728742687e-08 -0.0002583425164 0.9232636565)
(-0.0001385854207 -0.0001345160316 0.9233728069)
(-6.749285592e-05 -6.749151902e-05 0.9232606915)
(2.134303129e-05 2.134328921e-05 0.9008716488)
(4.143052478e-05 3.715677691e-05 0.9009799839)
(1.265898036e-08 6.054384776e-05 0.9008910401)
(-4.139454712e-05 3.715668914e-05 0.900979957)
(-2.131971231e-05 2.134257644e-05 0.9008715772)
(3.715652511e-05 4.1432006e-05 0.9009799813)
(8.063571784e-05 8.06367231e-05 0.901007577)
(1.258901529e-08 0.0001575422247 0.9007749897)
(-8.06004261e-05 8.063803029e-05 0.9010075478)
(-3.713381958e-05 4.143048666e-05 0.9009799102)
(6.054314436e-05 1.462376311e-08 0.9008910319)
(0.0001575407676 1.406375551e-08 0.900774985)
(1.39796297e-08 1.545842235e-08 0.9000824519)
(-0.0001575062941 1.103257439e-08 0.9007749409)
(-6.052267904e-05 7.737465042e-09 0.900890954)
(3.715597043e-05 -4.139307995e-05 0.9009799453)
(8.063655867e-05 -8.059897153e-05 0.9010075405)
(9.554771223e-09 -0.0001575050394 0.9007749379)
(-8.060814832e-05 -8.060694163e-05 0.9010075017)
(-3.71370708e-05 -4.139831862e-05 0.9009798776)
(2.134185997e-05 -2.131900083e-05 0.9008715649)
(4.142880784e-05 -3.713309971e-05 0.9009799016)
(6.000011872e-09 -6.052215868e-05 0.9008909494)
(-4.139958524e-05 -3.71365943e-05 0.900979876)
(-2.13186225e-05 -2.131814335e-05 0.9008715031)
)
;

boundaryField
{
    top
    {
        type            pressureInletOutletVelocity;
        value           nonuniform List<vector> 
25
(
(2.134303129e-05 2.134328921e-05 0.9008716488)
(3.715652511e-05 4.1432006e-05 0.9009799813)
(6.054314436e-05 1.462376311e-08 0.9008910319)
(3.715597043e-05 -4.139307995e-05 0.9009799453)
(2.134185997e-05 -2.131900083e-05 0.9008715649)
(4.143052478e-05 3.715677691e-05 0.9009799839)
(8.063571784e-05 8.06367231e-05 0.901007577)
(0.0001575407676 1.406375551e-08 0.900774985)
(8.063655867e-05 -8.059897153e-05 0.9010075405)
(4.142880784e-05 -3.713309971e-05 0.9009799016)
(1.265898036e-08 6.054384776e-05 0.9008910401)
(1.258901529e-08 0.0001575422247 0.9007749897)
(1.39796297e-08 1.545842235e-08 0.9000824519)
(9.554771223e-09 -0.0001575050394 0.9007749379)
(6.000011872e-09 -6.052215868e-05 0.9008909494)
(-4.139454712e-05 3.715668914e-05 0.900979957)
(-8.06004261e-05 8.063803029e-05 0.9010075478)
(-0.0001575062941 1.103257439e-08 0.9007749409)
(-8.060814832e-05 -8.060694163e-05 0.9010075017)
(-4.139958524e-05 -3.71365943e-05 0.900979876)
(-2.131971231e-05 2.134257644e-05 0.9008715772)
(-3.713381958e-05 4.143048666e-05 0.9009799102)
(-6.052267904e-05 7.737465042e-09 0.900890954)
(-3.71370708e-05 -4.139831862e-05 0.9009798776)
(-2.13186225e-05 -2.131814335e-05 0.9008715031)
)
;
    }
    bottom
    {
        type            fixedValue;
        value           uniform (0 0 1);
    }
    walls
    {
        type            noSlip;
    }
}


// ************************************************************************* //
