/*--------------------------------*- C++ -*----------------------------------*\
  =========                 |
  \\      /  F ield         | OpenFOAM: The Open Source CFD Toolbox
   \\    /   O peration     | Website:  https://openfoam.org
    \\  /    A nd           | Version:  7
     \\/     M anipulation  |
\*---------------------------------------------------------------------------*/
FoamFile
{
    version     2.0;
    format      ascii;
    class       volVectorField;
    location    "0.001";
    object      U;
}
// * * * * * * * * * * * * * * * * * * * * * * * * * * * * * * * * * * * * * //

dimensions      [0 1 -1 0 0 0 0];

internalField   nonuniform List<vector> 
125
(
(9.058782508e-05 9.06013127e-05 0.9842134689)
(0.0001411144081 0.0001184552265 0.9844166876)
(-4.232524197e-08 0.0001532997819 0.9844429717)
(-0.0001411961553 0.0001184580161 0.9844167211)
(-9.062744495e-05 9.060561749e-05 0.9842135345)
(0.0001184416864 0.0001411435787 0.9844166814)
(0.0002038233572 0.0002038530194 0.9846615188)
(-3.981800994e-08 0.0002993567911 0.9847731598)
(-0.000203901277 0.0002038602316 0.9846615518)
(-0.0001184799806 0.0001411580026 0.9844167449)
(0.0001532866238 -1.855820511e-08 0.9844429586)
(0.0002993275054 -1.385798097e-08 0.9847731532)
(-3.538658067e-08 -8.688791868e-09 0.9851776181)
(-0.000299395252 1.928597938e-10 0.9847731844)
(-0.0001533191575 3.978412416e-09 0.984443019)
(0.0001184465701 -0.0001411901392 0.9844167064)
(0.0002038333967 -0.0002038921517 0.9846615412)
(-2.577010199e-08 -0.0002993826691 0.9847731799)
(-0.0002038886904 -0.0002038743614 0.9846615693)
(-0.0001184762603 -0.000141154614 0.9844167678)
(9.059556869e-05 -9.062946044e-05 0.9842135206)
(0.0001411353314 -0.0001184806386 0.9844167346)
(-1.741206388e-08 -0.0001533170873 0.9844430138)
(-0.000141167131 -0.0001184724366 0.9844167662)
(-9.061007681e-05 -9.060627314e-05 0.9842135635)
(8.832505514e-05 8.834384962e-05 0.967318667)
(0.0001663274277 0.0001584161213 0.9675440776)
(-7.067706871e-08 0.0002794698976 0.9676215703)
(-0.0001664524826 0.0001584206683 0.9675441326)
(-8.837930621e-05 8.834977491e-05 0.9673187736)
(0.0001583973515 0.0001663695948 0.9675440672)
(0.0003574702918 0.0003575133079 0.9678919112)
(-6.600781907e-08 0.0008335436465 0.9683205105)
(-0.0003575891977 0.0003575247547 0.9678919647)
(-0.0001584501261 0.0001663909128 0.9675441709)
(0.0002794520262 -3.191239112e-08 0.9676215488)
(0.0008335015302 -2.582269678e-08 0.9683204992)
(-5.911092784e-08 -1.813141696e-08 0.9710011142)
(-0.0008336050647 -4.865765012e-09 0.968320553)
(-0.0002794963412 7.581226643e-09 0.9676216485)
(0.0001584033501 -0.0001664371391 0.9675441065)
(0.0003574839963 -0.0003575715198 0.9678919455)
(-4.505233461e-08 -0.0008335831394 0.9683205446)
(-0.0003575634203 -0.0003575395724 0.9678919973)
(-0.0001584376029 -0.0001663922481 0.9675442075)
(8.833421894e-05 -8.837938096e-05 0.9673187478)
(0.0001663553507 -0.0001584484175 0.9675441515)
(-2.726721824e-08 -0.0002794911839 0.9676216383)
(-0.000166414195 -0.0001584305307 0.9675442043)
(-8.836574755e-05 -8.835866953e-05 0.9673188192)
(0.000109045791 0.0001090516317 0.9454029288)
(0.0002383075698 0.0002599475066 0.945586691)
(-4.790539101e-09 0.0006467601305 0.9455798148)
(-0.0002383106123 0.0002599493432 0.9455867322)
(-0.0001090439468 0.0001090538535 0.9454030144)
(0.0002599416883 0.0002383218784 0.9455866831)
(0.000776043829 0.0007760583573 0.9457674069)
(-2.849794037e-09 0.00347711592 0.9457631237)
(-0.0007760444484 0.0007760661405 0.9457674475)
(-0.000259939358 0.0002383320996 0.945586766)
(0.0006467545755 1.010171804e-08 0.9455797986)
(0.003477101655 1.086673033e-08 0.945763114)
(3.090290382e-09 1.710094192e-08 0.9454264437)
(-0.003477094291 2.571428414e-08 0.9457631657)
(-0.0006467502096 3.430056281e-08 0.9455798802)
(0.0002599423886 -0.0002383043398 0.9455867094)
(0.0007760507802 -0.0007760386721 0.9457674311)
(1.199475752e-08 -0.003477086794 0.9457631588)
(-0.0007760272328 -0.000776019431 0.945767471)
(-0.0002599307638 -0.0002382924989 0.9455867685)
(0.0001090477919 -0.0001090441101 0.9454029919)
(0.0002383190337 -0.0002599386082 0.9455867495)
(2.227570005e-08 -0.0006467480448 0.9455798716)
(-0.000238300017 -0.0002599282969 0.9455867658)
(-0.0001090509835 -0.0001090485091 0.9454030395)
(6.75121663e-05 6.751429363e-05 0.923260723)
(0.0001386676621 0.0001344802024 0.9233728738)
(1.485709973e-08 0.0002581900541 0.923263724)
(-0.0001386262544 0.0001344823527 0.9233728912)
(-6.748551921e-05 6.751473616e-05 0.9232607623)
(0.0001344780894 0.0001386742915 0.9233728682)
(0.0003293591597 0.0003293650578 0.9233499837)
(1.709967328e-08 0.0008737137974 0.9228773418)
(-0.0003293171171 0.000329382153 0.9233499991)
(-0.0001344530526 0.0001386822485 0.9233729043)
(0.0002581872379 2.208190711e-08 0.9232637112)
(0.0008737072019 2.302126814e-08 0.9228773339)
(3.204420262e-08 3.821175807e-08 0.9201342211)
(-0.0008736576567 3.408038272e-08 0.9228773448)
(-0.0002581696478 2.308708024e-08 0.9232637385)
(0.0001344789668 -0.0001386228716 0.9233728727)
(0.0003293752313 -0.0003293137721 0.9233499869)
(2.81572873e-08 -0.0008736538703 0.9228773402)
(-0.0003293322499 -0.000329328514 0.9233499844)
(-0.0001344641002 -0.0001386342033 0.9233728777)
(6.751188048e-05 -6.748487464e-05 0.9232607446)
(0.0001386760363 -0.0001344518644 0.923372892)
(1.728646929e-08 -0.0002581682687 0.9232637322)
(-0.0001386380003 -0.0001344627681 0.9233728757)
(-6.749103143e-05 -6.748969469e-05 0.9232607549)
(2.134016702e-05 2.134042622e-05 0.9008717205)
(4.143457651e-05 3.713622422e-05 0.9009800601)
(1.265955826e-08 6.048645578e-05 0.9008910565)
(-4.139859801e-05 3.713613354e-05 0.9009800332)
(-2.131684769e-05 2.133971056e-05 0.9008716489)
(3.713596963e-05 4.143605589e-05 0.9009800576)
(8.058524261e-05 8.058624588e-05 0.9010077253)
(1.258512663e-08 0.0001574620222 0.9007752337)
(-8.054994835e-05 8.058757068e-05 0.9010076961)
(-3.711326524e-05 4.143453486e-05 0.9009799865)
(6.048575393e-05 1.462529664e-08 0.9008910483)
(0.0001574605627 1.406245966e-08 0.900775229)
(1.399754855e-08 1.547456086e-08 0.90007988)
(-0.0001574260943 1.103215515e-08 0.9007751844)
(-6.046530611e-05 7.737339126e-09 0.9008909703)
(3.713541502e-05 -4.139713112e-05 0.9009800215)
(8.058609805e-05 -8.054849551e-05 0.9010076887)
(9.554862782e-09 -0.0001574248369 0.9007751815)
(-8.055768987e-05 -8.055648048e-05 0.90100765)
(-3.711651624e-05 -4.140236662e-05 0.9009799538)
(2.133899434e-05 -2.131613477e-05 0.9008716365)
(4.143285801e-05 -3.711254539e-05 0.9009799778)
(6.000266464e-09 -6.046478282e-05 0.9008909658)
(-4.140363595e-05 -3.711603981e-05 0.9009799522)
(-2.131575912e-05 -2.131527851e-05 0.9008715748)
)
;

boundaryField
{
    top
    {
        type            pressureInletOutletVelocity;
        value           nonuniform List<vector> 
25
(
(2.134016702e-05 2.134042622e-05 0.9008717205)
(3.713596963e-05 4.143605589e-05 0.9009800576)
(6.048575393e-05 1.462529664e-08 0.9008910483)
(3.713541502e-05 -4.139713112e-05 0.9009800215)
(2.133899434e-05 -2.131613477e-05 0.9008716365)
(4.143457651e-05 3.713622422e-05 0.9009800601)
(8.058524261e-05 8.058624588e-05 0.9010077253)
(0.0001574605627 1.406245966e-08 0.900775229)
(8.058609805e-05 -8.054849551e-05 0.9010076887)
(4.143285801e-05 -3.711254539e-05 0.9009799778)
(1.265955826e-08 6.048645578e-05 0.9008910565)
(1.258512663e-08 0.0001574620222 0.9007752337)
(1.399754855e-08 1.547456086e-08 0.90007988)
(9.554862782e-09 -0.0001574248369 0.9007751815)
(6.000266464e-09 -6.046478282e-05 0.9008909658)
(-4.139859801e-05 3.713613354e-05 0.9009800332)
(-8.054994835e-05 8.058757068e-05 0.9010076961)
(-0.0001574260943 1.103215515e-08 0.9007751844)
(-8.055768987e-05 -8.055648048e-05 0.90100765)
(-4.140363595e-05 -3.711603981e-05 0.9009799522)
(-2.131684769e-05 2.133971056e-05 0.9008716489)
(-3.711326524e-05 4.143453486e-05 0.9009799865)
(-6.046530611e-05 7.737339126e-09 0.9008909703)
(-3.711651624e-05 -4.140236662e-05 0.9009799538)
(-2.131575912e-05 -2.131527851e-05 0.9008715748)
)
;
    }
    bottom
    {
        type            fixedValue;
        value           uniform (0 0 1);
    }
    walls
    {
        type            noSlip;
    }
}


// ************************************************************************* //
